
.Version 8.6.3 of ABINIT 
.(sequential version, prepared for a x86_64_linux_gnu5.4 computer) 

.Copyright (C) 1998-2017 ABINIT group . 
 ABINIT comes with ABSOLUTELY NO WARRANTY.
 It is free software, and you are welcome to redistribute it
 under certain conditions (GNU General Public License,
 see ~abinit/COPYING or http://www.gnu.org/copyleft/gpl.txt).

 ABINIT is a project of the Universite Catholique de Louvain,
 Corning Inc. and other collaborators, see ~abinit/doc/developers/contributors.txt .
 Please read ~abinit/doc/users/acknowledgments.html for suggested
 acknowledgments of the ABINIT effort.
 For more information, see https://www.abinit.org .

.Starting date : Sun 22 Apr 2018.
- ( at 09h27 )
  
- input  file    -> DOSwithoutGeom.in
- output file    -> DOSwithoutGeom.out
- root for input  files -> DOSwithoutGeom_i
- root for output files -> DOSwithoutGeom_o


 Symmetries : space group P1 (#  1); Bravais aP (primitive triclinic)
================================================================================
 Values of the parameters that define the memory need of the present run
     intxc =       0    ionmov =       0      iscf =       7    lmnmax =       6
     lnmax =       6     mgfft =     432  mpssoang =       3    mqgrid =   20922
     natom =      30  nloc_mem =       1    nspden =       1   nspinor =       1
    nsppol =       1      nsym =       1    n1xccc =    2501    ntypat =       3
    occopt =       1   xclevel =       2
-    mband =         184        mffmem =           1         mkmem =           2
       mpw =      100476          nfft =     1769472          nkpt =           2
================================================================================
P This job should need less than                    1102.811 Mbytes of memory.
  Rough estimation (10% accuracy) of disk space for files :
_ WF disk file :    564.198 Mbytes ; DEN or POT disk file :     13.502 Mbytes.
================================================================================

--------------------------------------------------------------------------------
------------- Echo of variables that govern the present computation ------------
--------------------------------------------------------------------------------
-
- outvars: echo of selected default values                                      
-   iomode0 =  0 , fftalg0 =112 , wfoptalg0 =  0
-
- outvars: echo of global parameters not present in the input file              
-  max_nthreads =    0
-
 -outvars: echo values of preprocessed input variables --------
            acell      8.6808000000E+00  8.6808000000E+00  6.0000000000E+01 Bohr
              amu      4.78800000E+01  1.59994000E+01  1.06420000E+02
           diemac      1.20000000E+01
             ecut      6.00000000E+01 Hartree
-          fftalg         112
              ixc          11
              kpt      1.25000000E-01  5.00000000E-01  5.00000000E-01
                       3.75000000E-01  5.00000000E-01  5.00000000E-01
           kptopt           2
         kptrlatt        4    0    0      0    1    0      0    0    1
          kptrlen      8.68080000E+00
P           mkmem           2
            natom          30
            nband         184
            ngfft          64      64     432
             nkpt           2
            nstep          10
             nsym           1
           ntypat           3
              occ      2.000000  2.000000  2.000000  2.000000  2.000000  2.000000
                       2.000000  2.000000  2.000000  2.000000  2.000000  2.000000
                       2.000000  2.000000  2.000000  2.000000  2.000000  2.000000
                       2.000000  2.000000  2.000000  2.000000  2.000000  2.000000
                       2.000000  2.000000  2.000000  2.000000  2.000000  2.000000
                       2.000000  2.000000  2.000000  2.000000  2.000000  2.000000
                       2.000000  2.000000  2.000000  2.000000  2.000000  2.000000
                       2.000000  2.000000  2.000000  2.000000  2.000000  2.000000
                       2.000000  2.000000  2.000000  2.000000  2.000000  2.000000
                       2.000000  2.000000  2.000000  2.000000  2.000000  2.000000
                       2.000000  2.000000  2.000000  2.000000  2.000000  2.000000
                       2.000000  2.000000  2.000000  2.000000  2.000000  2.000000
                       2.000000  2.000000  2.000000  2.000000  2.000000  2.000000
                       2.000000  2.000000  2.000000  2.000000  2.000000  2.000000
                       2.000000  2.000000  2.000000  2.000000  2.000000  2.000000
                       2.000000  2.000000  2.000000  2.000000  2.000000  2.000000
                       2.000000  2.000000  2.000000  2.000000  2.000000  2.000000
                       2.000000  2.000000  2.000000  2.000000  2.000000  2.000000
                       2.000000  2.000000  2.000000  2.000000  2.000000  2.000000
                       2.000000  2.000000  2.000000  2.000000  2.000000  2.000000
                       2.000000  2.000000  2.000000  2.000000  2.000000  2.000000
                       2.000000  2.000000  2.000000  2.000000  2.000000  2.000000
                       2.000000  2.000000  2.000000  2.000000  2.000000  2.000000
                       2.000000  2.000000  2.000000  2.000000  2.000000  2.000000
                       2.000000  2.000000  2.000000  2.000000  2.000000  2.000000
                       2.000000  2.000000  2.000000  2.000000  2.000000  2.000000
                       2.000000  2.000000  2.000000  2.000000  2.000000  2.000000
                       2.000000  2.000000  2.000000  2.000000  2.000000  2.000000
                       2.000000  2.000000  2.000000  2.000000  2.000000  2.000000
                       2.000000  2.000000  2.000000  2.000000  2.000000  2.000000
                       0.000000  0.000000  0.000000  0.000000
           prtdos           2
           shiftk      5.00000000E-01  5.00000000E-01  5.00000000E-01
          spgroup           1
           toldfe      1.00000000E-02 Hartree
            typat      1  1  1  1  1  1  2  2  2  2  2  2  2  2  2  2  2  2  3  3
                       3  3  3  3  3  3  3  3  3  3
              wtk        0.50000    0.50000
           xangst      0.0000000000E+00  0.0000000000E+00  0.0000000000E+00
                       0.0000000000E+00  0.0000000000E+00  4.5936815123E+00
                       0.0000000000E+00  0.0000000000E+00  9.1873630247E+00
                       2.2968407562E+00  1.4793678043E+00  2.2968407562E+00
                       2.2968407562E+00  1.4793678043E+00  6.8905222685E+00
                       2.2968407562E+00  1.4793678043E+00  1.1484203781E+01
                       3.9876836484E+01  0.0000000000E+00  1.4240158683E+00
                       3.9876836484E+01  0.0000000000E+00  6.0176973806E+00
                       3.9876836484E+01  0.0000000000E+00  1.0611378893E+01
                       3.1696656440E+00  0.0000000000E+00  3.1696656440E+00
                       3.1696656440E+00  0.0000000000E+00  7.7633471563E+00
                       3.1696656440E+00  0.0000000000E+00  1.2357028669E+01
                       8.7282488785E-01  1.4793678043E+00  3.7208566245E+00
                       8.7282488785E-01  1.4793678043E+00  8.3145381368E+00
                       8.7282488785E-01  1.4793678043E+00  1.2908219649E+01
                       3.7208566245E+00  1.4793678043E+00  8.7282488785E-01
                       3.7208566245E+00  1.4793678043E+00  5.4665064002E+00
                       3.7208566245E+00  1.4793678043E+00  1.0060187913E+01
                       8.7282488785E-01  0.0000000000E+00  1.6691519184E+01
                       8.7282488785E-01  0.0000000000E+00  2.0582241693E+01
                       8.7282488785E-01  0.0000000000E+00  2.4472964201E+01
                       1.9453612542E+00  1.3755961537E+00  1.8067115338E+01
                       1.9453612542E+00  1.3755961537E+00  2.1957837846E+01
                       1.9453612542E+00  1.3755961537E+00  2.5848560355E+01
                       1.9453612542E+00 -1.3755961537E+00  1.8067115338E+01
                       1.9453612542E+00 -1.3755961537E+00  2.1957837846E+01
                       1.9453612542E+00 -1.3755961537E+00  2.5848560355E+01
                       0.0000000000E+00  0.0000000000E+00  1.9442658574E+01
                       0.0000000000E+00  0.0000000000E+00  2.3333381082E+01
                       0.0000000000E+00  0.0000000000E+00  2.7224103591E+01
            xcart      0.0000000000E+00  0.0000000000E+00  0.0000000000E+00
                       0.0000000000E+00  0.0000000000E+00  8.6808000000E+00
                       0.0000000000E+00  0.0000000000E+00  1.7361600000E+01
                       4.3404000000E+00  2.7956000000E+00  4.3404000000E+00
                       4.3404000000E+00  2.7956000000E+00  1.3021200000E+01
                       4.3404000000E+00  2.7956000000E+00  2.1702000000E+01
                       7.5356300000E+01  0.0000000000E+00  2.6910000000E+00
                       7.5356300000E+01  0.0000000000E+00  1.1371800000E+01
                       7.5356300000E+01  0.0000000000E+00  2.0052600000E+01
                       5.9898000000E+00  0.0000000000E+00  5.9898000000E+00
                       5.9898000000E+00  0.0000000000E+00  1.4670600000E+01
                       5.9898000000E+00  0.0000000000E+00  2.3351400000E+01
                       1.6494000000E+00  2.7956000000E+00  7.0314000000E+00
                       1.6494000000E+00  2.7956000000E+00  1.5712200000E+01
                       1.6494000000E+00  2.7956000000E+00  2.4393000000E+01
                       7.0314000000E+00  2.7956000000E+00  1.6494000000E+00
                       7.0314000000E+00  2.7956000000E+00  1.0330200000E+01
                       7.0314000000E+00  2.7956000000E+00  1.9011000000E+01
                       1.6494000000E+00  0.0000000000E+00  3.1542400000E+01
                       1.6494000000E+00  0.0000000000E+00  3.8894800000E+01
                       1.6494000000E+00  0.0000000000E+00  4.6247200000E+01
                       3.6762000000E+00  2.5995000000E+00  3.4141900000E+01
                       3.6762000000E+00  2.5995000000E+00  4.1494300000E+01
                       3.6762000000E+00  2.5995000000E+00  4.8846700000E+01
                       3.6762000000E+00 -2.5995000000E+00  3.4141900000E+01
                       3.6762000000E+00 -2.5995000000E+00  4.1494300000E+01
                       3.6762000000E+00 -2.5995000000E+00  4.8846700000E+01
                       0.0000000000E+00  0.0000000000E+00  3.6741300000E+01
                       0.0000000000E+00  0.0000000000E+00  4.4093700000E+01
                       0.0000000000E+00  0.0000000000E+00  5.1446100000E+01
             xred      0.0000000000E+00  0.0000000000E+00  0.0000000000E+00
                       0.0000000000E+00  0.0000000000E+00  1.4468000000E-01
                       0.0000000000E+00  0.0000000000E+00  2.8936000000E-01
                       5.0000000000E-01  3.2204405124E-01  7.2340000000E-02
                       5.0000000000E-01  3.2204405124E-01  2.1702000000E-01
                       5.0000000000E-01  3.2204405124E-01  3.6170000000E-01
                       8.6808013086E+00  0.0000000000E+00  4.4850000000E-02
                       8.6808013086E+00  0.0000000000E+00  1.8953000000E-01
                       8.6808013086E+00  0.0000000000E+00  3.3421000000E-01
                       6.9000552944E-01  0.0000000000E+00  9.9830000000E-02
                       6.9000552944E-01  0.0000000000E+00  2.4451000000E-01
                       6.9000552944E-01  0.0000000000E+00  3.8919000000E-01
                       1.9000552944E-01  3.2204405124E-01  1.1719000000E-01
                       1.9000552944E-01  3.2204405124E-01  2.6187000000E-01
                       1.9000552944E-01  3.2204405124E-01  4.0655000000E-01
                       8.0999447056E-01  3.2204405124E-01  2.7490000000E-02
                       8.0999447056E-01  3.2204405124E-01  1.7217000000E-01
                       8.0999447056E-01  3.2204405124E-01  3.1685000000E-01
                       1.9000552944E-01  0.0000000000E+00  5.2570666667E-01
                       1.9000552944E-01  0.0000000000E+00  6.4824666667E-01
                       1.9000552944E-01  0.0000000000E+00  7.7078666667E-01
                       4.2348631463E-01  2.9945396738E-01  5.6903166667E-01
                       4.2348631463E-01  2.9945396738E-01  6.9157166667E-01
                       4.2348631463E-01  2.9945396738E-01  8.1411166667E-01
                       4.2348631463E-01 -2.9945396738E-01  5.6903166667E-01
                       4.2348631463E-01 -2.9945396738E-01  6.9157166667E-01
                       4.2348631463E-01 -2.9945396738E-01  8.1411166667E-01
                       0.0000000000E+00  0.0000000000E+00  6.1235500000E-01
                       0.0000000000E+00  0.0000000000E+00  7.3489500000E-01
                       0.0000000000E+00  0.0000000000E+00  8.5743500000E-01
            znucl       22.00000    8.00000   46.00000

================================================================================

 chkinp: Checking input parameters for consistency.

================================================================================
== DATASET  1 ==================================================================
-   nproc =    1

 Exchange-correlation functional for the present dataset will be:
  GGA: Perdew-Burke-Ernzerhof functional - ixc=11
 Citation for XC functional:
  J.P.Perdew, K.Burke, M.Ernzerhof, PRL 77, 3865 (1996)

 Real(R)+Recip(G) space primitive vectors, cartesian coordinates (Bohr,Bohr^-1):
 R(1)=  8.6808000  0.0000000  0.0000000  G(1)=  0.1151968  0.0000000  0.0000000
 R(2)=  0.0000000  8.6808000  0.0000000  G(2)=  0.0000000  0.1151968  0.0000000
 R(3)=  0.0000000  0.0000000 60.0000000  G(3)=  0.0000000  0.0000000  0.0166667
 Unit cell volume ucvol=  4.5213773E+03 bohr^3
 Angles (23,13,12)=  9.00000000E+01  9.00000000E+01  9.00000000E+01 degrees

 getcut: wavevector=  0.0000  0.0000  0.0000  ngfft=  64  64 432
         ecut(hartree)=     60.000   => boxcut(ratio)=   2.06487

--- Pseudopotential description ------------------------------------------------
- pspini: atom type   1  psp file is ../../../Psps_for_tests/Ti.psp8
- pspatm: opening atomic psp file    ../../../Psps_for_tests/Ti.psp8
- Ti    ONCVPSP-3.2.3.1  r_core=   1.35825   1.31050   1.66360
- 22.00000  12.00000    170504                znucl, zion, pspdat
    8   11    2    4       600   0.00000      pspcod,pspxc,lmax,lloc,mmax,r2well
    5.99000000000000    2.50000000000000    0.00000000000000   rchrg,fchrg,qchrg
     nproj     2     2     2
     extension_switch     1
  pspatm : epsatm=   14.68144390
         --- l  ekb(1:nproj) -->
             0   11.362348    1.263639
             1    1.975402   -0.084666
             2   -5.186090   -1.477451
 pspatm: atomic psp has been read  and splines computed

- pspini: atom type   2  psp file is ../../../Psps_for_tests/O.psp8
- pspatm: opening atomic psp file    ../../../Psps_for_tests/O.psp8
- O     ONCVPSP-3.2.3.1  r_core=   1.35509   1.45563   1.26150
-  8.00000   6.00000    170504                znucl, zion, pspdat
    8   11    2    4       600   0.00000      pspcod,pspxc,lmax,lloc,mmax,r2well
    5.99000000000000    4.00000000000000    0.00000000000000   rchrg,fchrg,qchrg
     nproj     2     2     1
     extension_switch     1
  pspatm : epsatm=    6.19546011
         --- l  ekb(1:nproj) -->
             0    6.056735    0.824024
             1   -4.717130   -1.149271
             2   -1.331955
 pspatm: atomic psp has been read  and splines computed

- pspini: atom type   3  psp file is ../../../Psps_for_tests/Pd.psp8
- pspatm: opening atomic psp file    ../../../Psps_for_tests/Pd.psp8
- Pd    ONCVPSP-3.2.3.1  r_core=   1.41052   1.46191   1.55175
- 46.00000  18.00000    170510                znucl, zion, pspdat
    8   11    2    4       600   0.00000      pspcod,pspxc,lmax,lloc,mmax,r2well
    5.99000000000000    7.00000000000000    0.00000000000000   rchrg,fchrg,qchrg
     nproj     2     2     2
     extension_switch     1
  pspatm : epsatm=   26.09224486
         --- l  ekb(1:nproj) -->
             0    7.845850   -2.282160
             1    3.261104   -0.686948
             2   -1.134855   -0.401224
 pspatm: atomic psp has been read  and splines computed

   1.71194804E+05                                ecore*ucvol(ha*bohr**3)
--------------------------------------------------------------------------------

_setup2: Arith. and geom. avg. npw (full set) are  100394.000  100393.967

================================================================================

     iter   Etot(hartree)      deltaE(h)  residm     vres2
 ETOT  1  -1549.6838993225    -1.550E+03 1.726E-01 5.275E+08
 ETOT  2   10215.558994043     1.177E+04 1.466E+00 1.108E+10
 ETOT  3   110.85431873827    -1.010E+04 1.428E+00 1.980E+09
 ETOT  4  -1500.0301583615    -1.611E+03 2.088E-01 5.753E+08
 ETOT  5  -1966.8000639108    -4.668E+02 1.225E-01 1.766E+08
 ETOT  6  -2083.8211771982    -1.170E+02 1.041E-01 7.678E+07
 ETOT  7  -2116.9865383004    -3.317E+01 2.429E-02 4.864E+07
 ETOT  8  -2129.5291737992    -1.254E+01 1.770E-02 3.834E+07
 ETOT  9  -2145.4068481901    -1.588E+01 2.267E-02 2.424E+07
 ETOT 10  -1958.4950327770     1.869E+02 1.438E-01 1.715E+08

 Cartesian components of stress tensor (hartree/bohr^3)
  sigma(1 1)= -4.72282925E-02  sigma(3 2)=  4.70654832E-04
  sigma(2 2)= -4.74840922E-02  sigma(3 1)= -7.34112868E-04
  sigma(3 3)=  3.48167066E-02  sigma(2 1)= -1.63162274E-04


 scprqt:  WARNING -
  nstep=   10 was not enough SCF cycles to converge;
  maximum energy difference=  1.869E+02 exceeds toldfe=  1.000E-02

 Integrated electronic density in atomic spheres:
 ------------------------------------------------
 Atom  Sphere_radius  Integrated_density
    1        2.00000         13.73456884
    2        2.00000          9.09525657
    3        2.00000          9.32118881
    4        2.00000         10.24805278
    5        2.00000          9.95857276
    6        2.00000          8.70068980
    7        2.00000          3.49172219
    8        2.00000          5.07117390
    9        2.00000          6.49466155
   10        2.00000          2.84643511
   11        2.00000          4.56521230
   12        2.00000          5.95066331
   13        2.00000          2.44731066
   14        2.00000          4.67136033
   15        2.00000          2.24778588
   16        2.00000          3.36370963
   17        2.00000          4.48129069
   18        2.00000          6.43487921
   19        2.00000         15.67718954
   20        2.00000         18.49378490
   21        2.00000         18.55927600
   22        2.00000         16.09310863
   23        2.00000         16.25376483
   24        2.00000         15.94888960
   25        2.00000         16.08229886
   26        2.00000         16.26214526
   27        2.00000         15.96341146
   28        2.00000         18.42370261
   29        2.00000         18.41181054
   30        2.00000         15.55236336
================================================================================

 ----iterations are completed or convergence reached----

 Mean square residual over all n,k,spin=   9.2112E-03; max=  1.4385E-01
 reduced coordinates (array xred) for   30 atoms
       0.000000000000      0.000000000000      0.000000000000
       0.000000000000      0.000000000000      0.144680000000
       0.000000000000      0.000000000000      0.289360000000
       0.500000000000      0.322044051240      0.072340000000
       0.500000000000      0.322044051240      0.217020000000
       0.500000000000      0.322044051240      0.361700000000
       8.680801308635      0.000000000000      0.044850000000
       8.680801308635      0.000000000000      0.189530000000
       8.680801308635      0.000000000000      0.334210000000
       0.690005529444      0.000000000000      0.099830000000
       0.690005529444      0.000000000000      0.244510000000
       0.690005529444      0.000000000000      0.389190000000
       0.190005529444      0.322044051240      0.117190000000
       0.190005529444      0.322044051240      0.261870000000
       0.190005529444      0.322044051240      0.406550000000
       0.809994470556      0.322044051240      0.027490000000
       0.809994470556      0.322044051240      0.172170000000
       0.809994470556      0.322044051240      0.316850000000
       0.190005529444      0.000000000000      0.525706666667
       0.190005529444      0.000000000000      0.648246666667
       0.190005529444      0.000000000000      0.770786666667
       0.423486314625      0.299453967376      0.569031666667
       0.423486314625      0.299453967376      0.691571666667
       0.423486314625      0.299453967376      0.814111666667
       0.423486314625     -0.299453967376      0.569031666667
       0.423486314625     -0.299453967376      0.691571666667
       0.423486314625     -0.299453967376      0.814111666667
       0.000000000000      0.000000000000      0.612355000000
       0.000000000000      0.000000000000      0.734895000000
       0.000000000000      0.000000000000      0.857435000000
 rms dE/dt=  1.2383E+02; max dE/dt=  4.3726E+02; dE/dt below (all hartree)
    1       9.270944628765     -5.653480654191   -758.145394123689
    2       0.697300819492     -0.606771469145    -28.962648854700
    3      -1.095540849839     -0.738856551233    194.620812163355
    4      -1.480353507106      1.096571873134   -238.050470439254
    5      -3.634898958409      2.442893012037     67.775186662829
    6       1.826874086439     -3.577794388052    179.198966611877
    7      -1.153153493929      6.581122595079    437.257673925399
    8       1.810818147482      2.387679738299    -14.205982233265
    9      -0.670612606357      1.444250333879   -114.738572035592
   10       1.082605361586      2.924405584688    219.067779472692
   11       0.621842526395     -0.063351602680   -109.236322400731
   12      -1.070209336544      1.597036518820   -103.667308627152
   13      -2.725262942449     -3.601109392519    217.485274160437
   14      -0.818990795746     -0.089924410628   -102.822633377523
   15       1.321943529992      0.338904206323   -306.023821959047
   16      -6.633886729302     -2.641247150766    432.011992955865
   17       1.193488845367     -3.164644075425     -1.832379385476
   18       0.137793053758     -0.591613684730   -106.218245968348
   19       0.268784170368      0.019140008835     -3.249011671005
   20      -7.256636268975     -0.282215882600    125.764968301609
   21      -3.767766139759     -0.594865761683    -84.065032860593
   22      -0.704320481518      6.740913740303     91.026631220814
   23      -3.241191269304      7.405206401310      4.256103026805
   24      -2.145240568347      9.379981689257    -34.402616999063
   25      -0.615869422982     -6.848042593435     94.570330370538
   26      -3.791536436417     -7.270488816579      3.576722834318
   27      -1.929086314415     -9.195867348787    -31.818998844791
   28      14.556183169548      0.152800644448     39.882215300308
   29      10.095609441808      0.499066968798    -28.929454190685
   30      -0.409673014050     -0.038600443407    -51.786605763265

 cartesian coordinates (angstrom) at end:
    1      0.00000000000000     0.00000000000000     0.00000000000000
    2      0.00000000000000     0.00000000000000     4.59368151232807
    3      0.00000000000000     0.00000000000000     9.18736302465614
    4      2.29684075616404     1.47936780433420     2.29684075616404
    5      2.29684075616404     1.47936780433420     6.89052226849211
    6      2.29684075616404     1.47936780433420    11.48420378082018
    7     39.87683648367062     0.00000000000000     1.42401586831569
    8     39.87683648367062     0.00000000000000     6.01769738064376
    9     39.87683648367062     0.00000000000000    10.61137889297183
   10      3.16966564401238     0.00000000000000     3.16966564401238
   11      3.16966564401238     0.00000000000000     7.76334715634045
   12      3.16966564401238     0.00000000000000    12.35702866866853
   13      0.87282488784835     1.47936780433420     3.72085662447973
   14      0.87282488784835     1.47936780433420     8.31453813680780
   15      0.87282488784835     1.47936780433420    12.90821964913587
   16      3.72085662447973     1.47936780433420     0.87282488784835
   17      3.72085662447973     1.47936780433420     5.46650640017642
   18      3.72085662447973     1.47936780433420    10.06018791250449
   19      0.87282488784835     0.00000000000000    16.69151918422921
   20      0.87282488784835     0.00000000000000    20.58224169266633
   21      0.87282488784835     0.00000000000000    24.47296420110344
   22      1.94536125421856     1.37559615372970    18.06711533795891
   23      1.94536125421856     1.37559615372970    21.95783784639604
   24      1.94536125421856     1.37559615372970    25.84856035483315
   25      1.94536125421856    -1.37559615372970    18.06711533795891
   26      1.94536125421856    -1.37559615372970    21.95783784639604
   27      1.94536125421856    -1.37559615372970    25.84856035483315
   28      0.00000000000000     0.00000000000000    19.44265857396776
   29      0.00000000000000     0.00000000000000    23.33338108240488
   30      0.00000000000000     0.00000000000000    27.22410359084200

 cartesian forces (hartree/bohr) at end:
    1     -1.06898127752199     0.64377906304750    12.62927832276852
    2     -0.08132532308549     0.06241453615530     0.47623256828537
    3      0.12520422134948     0.07763030913562    -3.25015844868220
    4      0.16953339115722    -0.13380509133061     3.96102959469461
    5      0.41773003792974    -0.28889691914629    -1.13606469034012
    6     -0.21144849916911     0.40466673859137    -2.99312768949092
    7      0.13184101105667    -0.76560754294159    -7.29410614471628
    8     -0.20959890708575    -0.28253652912031     0.23028812459479
    9      0.07625386614237    -0.17385652216010     1.90583128796691
   10     -0.12571115642963    -0.34436560551748    -3.65760790383782
   11     -0.07263277250288    -0.00018566963969     1.81412712738589
   12      0.12228611319183    -0.19145699503596     1.72131023115958
   13      0.31294291969643     0.40735255147343    -3.63123281530024
   14      0.09334655222994     0.00287543163529     1.70723231033241
   15     -0.15328213703113    -0.04652423394284     5.09391878669115
   16      0.76320370059830     0.29677953495959    -7.20667812855738
   17     -0.13848457406179     0.35707316281178     0.02406141046497
   18     -0.01687184348290     0.06066840856161     1.76382585351283
   19     -0.03196159518898    -0.00968843568831     0.04767194855712
   20      0.83494242740609     0.02502678542435    -2.10256105098644
   21      0.43303590620808     0.06104303727709     1.39460563505025
   22      0.08013690401459    -0.78401496451841    -1.52358876630653
   23      0.37237618930928    -0.86053932414043    -0.07741329640637
   24      0.24612622375797    -1.08802703125817     0.56689870402475
   25      0.06994762900122     0.78138872336034    -1.58265041880194
   26      0.43577416727363     0.83005315787609    -0.06609029319826
   27      0.22122595489668     1.05185051897277     0.52383840145356
   28     -1.67782361242012    -0.02508570732379    -0.67118183429809
   29     -1.16397998882086    -0.06497446462148     0.47567932388512
   30      0.04619447158114    -0.00303692289668     0.85663185009478
 frms,max,avg= 2.1021010E+00 1.2629278E+01   9.985E-04  7.484E-03  6.478E-03 h/b

 cartesian forces (eV/Angstrom) at end:
    1    -54.96922280404092    33.10444766185992   649.42354798559506
    2     -4.18191590283032     3.20948422229143    24.48886122056579
    3      6.43825938216614     3.99191066200384  -167.12985313287905
    4      8.71775675327869    -6.88053386184390   203.68431412465821
    5     21.48054040771330   -14.85567563237949   -58.41879029712465
    6    -10.87311808617508    20.80879860363688  -153.91280119139935
    7      6.77953680188293   -39.36911945358637  -375.07798710439437
    8    -10.77800824518447   -14.52861125453615    11.84189049533198
    9      3.92113112342415    -8.94006106889704    98.00177692355321
   10     -6.46432702989222   -17.70798992814859  -188.08174476352869
   11     -3.73492701746961    -0.00954751594492    93.28615978316617
   12      6.28820424008177    -9.84511369733246    88.51332348011053
   13     16.09217059218888    20.94690864338087  -186.72548329404862
   14      4.80007230754434     0.14786062725466    87.78940774572098
   15     -7.88208373665388    -2.39237209777865   261.93981374529227
   16     39.24550892070539    15.26101600085101  -370.58225813270036
   17     -7.12116251855377    18.36143874235469     1.23728736942370
   18     -0.86758500174724     3.11969473882697    90.69956449941634
   19     -1.64353116753211    -0.49819935219832     2.45138995120063
   20     42.93446226394551     1.28692894158940  -108.11802722933506
   21     22.26759973353403     3.13895892030775    71.71349909378635
   22      4.12080494226753   -40.31566704911534   -78.34607781997815
   23     19.14835193794143   -44.25070750534359    -3.98075141972700
   24     12.65631823134616   -55.94859475620625    29.15110098195103
   25      3.59685139864698    40.18062031032716   -81.38314984683385
   26     22.40840676708372    42.68304593720973    -3.39849923323355
   27     11.37589503245720    54.08832385539186    26.93685138205865
   28    -86.27715182327381    -1.28995882722557   -34.51355469674947
   29    -59.85425253963133    -3.34112102564659    24.46041225205518
   30      2.37541503677661    -0.15616484110294    44.04977712804609
 frms,max,avg= 1.0809437E+02 6.4942355E+02   5.135E-02  3.848E-01  3.331E-01 e/A
 length scales=  8.680800000000  8.680800000000 60.000000000000 bohr
              =  4.593681512328  4.593681512328 31.750632515400 angstroms
 prteigrs : about to open file DOSwithoutGeom_o_EIG
 Fermi (or HOMO) energy (hartree) =   0.29995   Average Vxc (hartree)=  -0.32898
 Eigenvalues (hartree) for nkpt=   2  k points:
 kpt#   1, nband=184, wtk=  0.50000, kpt=  0.1250  0.5000  0.5000 (reduced coord)
  -3.56252   -3.54242   -3.27612   -3.26286   -3.14388   -3.11338   -3.06792   -3.06134
  -3.03683   -3.03107   -2.94287   -2.91591   -2.44363   -2.43065   -2.27668   -2.15352
  -2.14150   -2.13903   -2.12996   -2.01883   -2.00708   -2.00602   -1.99774   -1.95104
  -1.91008   -1.89987   -1.89778   -1.88241   -1.88240   -1.88149   -1.87199   -1.86187
  -1.85294   -1.84632   -1.83564   -1.81669   -1.80595   -1.80136   -1.79798   -1.79578
  -1.78672   -1.78604   -1.77985   -1.77748   -1.76795   -1.76430   -1.74899   -1.74866
  -1.69777   -1.69711   -1.69243   -1.66940   -1.66837   -1.66338   -1.40501   -1.39492
  -1.37420   -1.04027   -1.02222   -1.01777   -1.00677   -1.00570   -0.99107   -0.97862
  -0.96256   -0.95283   -0.94978   -0.94001   -0.90822   -0.90094   -0.88978   -0.88232
  -0.59816   -0.58303   -0.57587   -0.57098   -0.56767   -0.55787   -0.54599   -0.47471
  -0.41467   -0.39619   -0.37231   -0.37107   -0.36288   -0.36172   -0.35833   -0.29166
  -0.26422   -0.25118   -0.22121   -0.21600   -0.21444   -0.20727   -0.20481   -0.20259
  -0.18994   -0.18893   -0.18272   -0.17975   -0.17656   -0.17336   -0.16031   -0.15553
  -0.15517   -0.14906   -0.14844   -0.14427   -0.13514   -0.12658   -0.11376   -0.10982
  -0.09962   -0.09940   -0.09672   -0.09394   -0.08820   -0.08578   -0.07885   -0.07157
  -0.06725   -0.06696   -0.05990   -0.05949   -0.05745   -0.05346   -0.04927   -0.04379
  -0.04269   -0.03734   -0.03693   -0.03249   -0.03093   -0.03011   -0.02421   -0.02308
  -0.02144   -0.01642   -0.01026   -0.00798   -0.00434    0.00385    0.00904    0.01069
   0.01657    0.02092    0.02325    0.02660    0.03469    0.03606    0.04088    0.04654
   0.05063    0.05719    0.05886    0.06970    0.07215    0.08929    0.09535    0.09609
   0.10950    0.11831    0.13987    0.14644    0.15908    0.16610    0.18127    0.19408
   0.19941    0.21351    0.22561    0.22996    0.23658    0.24646    0.25349    0.26417
   0.28053    0.28748    0.29413    0.29995    0.30552    0.32006    0.34961    0.35599
 prteigrs : prtvol=0 or 1, do not print more k-points.


--------------------------------------------------------------------------------
 Components of total free energy (in Hartree) :

    Kinetic energy  =  8.30919870947969E+02
    Hartree energy  =  3.69493944536383E+03
    XC energy       = -3.57158750380870E+02
    Ewald energy    =  6.64095820168120E+02
    PspCore energy  =  3.78634190939097E+01
    Loc. psp. energy= -6.82971419096785E+03
    NL   psp  energy=  5.59352997896133E-01
    >>>>>>>>> Etotal= -1.95849503277700E+03

 Other information on the energy :
    Total energy(eV)= -5.32933601247982E+04 ; Band energy (Ha)=  -2.8852629649E+02
--------------------------------------------------------------------------------

 Cartesian components of stress tensor (hartree/bohr^3)
  sigma(1 1)= -4.72282925E-02  sigma(3 2)=  4.70654832E-04
  sigma(2 2)= -4.74840922E-02  sigma(3 1)= -7.34112868E-04
  sigma(3 3)=  3.48167066E-02  sigma(2 1)= -1.63162274E-04

-Cartesian components of stress tensor (GPa)         [Pressure=  5.8740E+02 GPa]
- sigma(1 1)= -1.38950410E+03  sigma(3 2)=  1.38471409E+01
- sigma(2 2)= -1.39702999E+03  sigma(3 1)= -2.15983426E+01
- sigma(3 3)=  1.02434270E+03  sigma(2 1)= -4.80039902E+00

== END DATASET(S) ==============================================================
================================================================================
  
 -outvars: echo values of variables after computation  --------
            acell      8.6808000000E+00  8.6808000000E+00  6.0000000000E+01 Bohr
              amu      4.78800000E+01  1.59994000E+01  1.06420000E+02
           diemac      1.20000000E+01
             ecut      6.00000000E+01 Hartree
           etotal     -1.9584950328E+03
            fcart     -1.0689812775E+00  6.4377906305E-01  1.2629278323E+01
                      -8.1325323085E-02  6.2414536155E-02  4.7623256829E-01
                       1.2520422135E-01  7.7630309136E-02 -3.2501584487E+00
                       1.6953339116E-01 -1.3380509133E-01  3.9610295947E+00
                       4.1773003793E-01 -2.8889691915E-01 -1.1360646903E+00
                      -2.1144849917E-01  4.0466673859E-01 -2.9931276895E+00
                       1.3184101106E-01 -7.6560754294E-01 -7.2941061447E+00
                      -2.0959890709E-01 -2.8253652912E-01  2.3028812459E-01
                       7.6253866142E-02 -1.7385652216E-01  1.9058312880E+00
                      -1.2571115643E-01 -3.4436560552E-01 -3.6576079038E+00
                      -7.2632772503E-02 -1.8566963969E-04  1.8141271274E+00
                       1.2228611319E-01 -1.9145699504E-01  1.7213102312E+00
                       3.1294291970E-01  4.0735255147E-01 -3.6312328153E+00
                       9.3346552230E-02  2.8754316353E-03  1.7072323103E+00
                      -1.5328213703E-01 -4.6524233943E-02  5.0939187867E+00
                       7.6320370060E-01  2.9677953496E-01 -7.2066781286E+00
                      -1.3848457406E-01  3.5707316281E-01  2.4061410465E-02
                      -1.6871843483E-02  6.0668408562E-02  1.7638258535E+00
                      -3.1961595189E-02 -9.6884356883E-03  4.7671948557E-02
                       8.3494242741E-01  2.5026785424E-02 -2.1025610510E+00
                       4.3303590621E-01  6.1043037277E-02  1.3946056351E+00
                       8.0136904015E-02 -7.8401496452E-01 -1.5235887663E+00
                       3.7237618931E-01 -8.6053932414E-01 -7.7413296406E-02
                       2.4612622376E-01 -1.0880270313E+00  5.6689870402E-01
                       6.9947629001E-02  7.8138872336E-01 -1.5826504188E+00
                       4.3577416727E-01  8.3005315788E-01 -6.6090293198E-02
                       2.2122595490E-01  1.0518505190E+00  5.2383840145E-01
                      -1.6778236124E+00 -2.5085707324E-02 -6.7118183430E-01
                      -1.1639799888E+00 -6.4974464621E-02  4.7567932389E-01
                       4.6194471581E-02 -3.0369228967E-03  8.5663185009E-01
-          fftalg         112
              ixc          11
              kpt      1.25000000E-01  5.00000000E-01  5.00000000E-01
                       3.75000000E-01  5.00000000E-01  5.00000000E-01
           kptopt           2
         kptrlatt        4    0    0      0    1    0      0    0    1
          kptrlen      8.68080000E+00
P           mkmem           2
            natom          30
            nband         184
            ngfft          64      64     432
             nkpt           2
            nstep          10
             nsym           1
           ntypat           3
              occ      2.000000  2.000000  2.000000  2.000000  2.000000  2.000000
                       2.000000  2.000000  2.000000  2.000000  2.000000  2.000000
                       2.000000  2.000000  2.000000  2.000000  2.000000  2.000000
                       2.000000  2.000000  2.000000  2.000000  2.000000  2.000000
                       2.000000  2.000000  2.000000  2.000000  2.000000  2.000000
                       2.000000  2.000000  2.000000  2.000000  2.000000  2.000000
                       2.000000  2.000000  2.000000  2.000000  2.000000  2.000000
                       2.000000  2.000000  2.000000  2.000000  2.000000  2.000000
                       2.000000  2.000000  2.000000  2.000000  2.000000  2.000000
                       2.000000  2.000000  2.000000  2.000000  2.000000  2.000000
                       2.000000  2.000000  2.000000  2.000000  2.000000  2.000000
                       2.000000  2.000000  2.000000  2.000000  2.000000  2.000000
                       2.000000  2.000000  2.000000  2.000000  2.000000  2.000000
                       2.000000  2.000000  2.000000  2.000000  2.000000  2.000000
                       2.000000  2.000000  2.000000  2.000000  2.000000  2.000000
                       2.000000  2.000000  2.000000  2.000000  2.000000  2.000000
                       2.000000  2.000000  2.000000  2.000000  2.000000  2.000000
                       2.000000  2.000000  2.000000  2.000000  2.000000  2.000000
                       2.000000  2.000000  2.000000  2.000000  2.000000  2.000000
                       2.000000  2.000000  2.000000  2.000000  2.000000  2.000000
                       2.000000  2.000000  2.000000  2.000000  2.000000  2.000000
                       2.000000  2.000000  2.000000  2.000000  2.000000  2.000000
                       2.000000  2.000000  2.000000  2.000000  2.000000  2.000000
                       2.000000  2.000000  2.000000  2.000000  2.000000  2.000000
                       2.000000  2.000000  2.000000  2.000000  2.000000  2.000000
                       2.000000  2.000000  2.000000  2.000000  2.000000  2.000000
                       2.000000  2.000000  2.000000  2.000000  2.000000  2.000000
                       2.000000  2.000000  2.000000  2.000000  2.000000  2.000000
                       2.000000  2.000000  2.000000  2.000000  2.000000  2.000000
                       2.000000  2.000000  2.000000  2.000000  2.000000  2.000000
                       0.000000  0.000000  0.000000  0.000000
           prtdos           2
           shiftk      5.00000000E-01  5.00000000E-01  5.00000000E-01
          spgroup           1
           strten     -4.7228292532E-02 -4.7484092156E-02  3.4816706614E-02
                       4.7065483208E-04 -7.3411286759E-04 -1.6316227380E-04
           toldfe      1.00000000E-02 Hartree
            typat      1  1  1  1  1  1  2  2  2  2  2  2  2  2  2  2  2  2  3  3
                       3  3  3  3  3  3  3  3  3  3
              wtk        0.50000    0.50000
           xangst      0.0000000000E+00  0.0000000000E+00  0.0000000000E+00
                       0.0000000000E+00  0.0000000000E+00  4.5936815123E+00
                       0.0000000000E+00  0.0000000000E+00  9.1873630247E+00
                       2.2968407562E+00  1.4793678043E+00  2.2968407562E+00
                       2.2968407562E+00  1.4793678043E+00  6.8905222685E+00
                       2.2968407562E+00  1.4793678043E+00  1.1484203781E+01
                       3.9876836484E+01  0.0000000000E+00  1.4240158683E+00
                       3.9876836484E+01  0.0000000000E+00  6.0176973806E+00
                       3.9876836484E+01  0.0000000000E+00  1.0611378893E+01
                       3.1696656440E+00  0.0000000000E+00  3.1696656440E+00
                       3.1696656440E+00  0.0000000000E+00  7.7633471563E+00
                       3.1696656440E+00  0.0000000000E+00  1.2357028669E+01
                       8.7282488785E-01  1.4793678043E+00  3.7208566245E+00
                       8.7282488785E-01  1.4793678043E+00  8.3145381368E+00
                       8.7282488785E-01  1.4793678043E+00  1.2908219649E+01
                       3.7208566245E+00  1.4793678043E+00  8.7282488785E-01
                       3.7208566245E+00  1.4793678043E+00  5.4665064002E+00
                       3.7208566245E+00  1.4793678043E+00  1.0060187913E+01
                       8.7282488785E-01  0.0000000000E+00  1.6691519184E+01
                       8.7282488785E-01  0.0000000000E+00  2.0582241693E+01
                       8.7282488785E-01  0.0000000000E+00  2.4472964201E+01
                       1.9453612542E+00  1.3755961537E+00  1.8067115338E+01
                       1.9453612542E+00  1.3755961537E+00  2.1957837846E+01
                       1.9453612542E+00  1.3755961537E+00  2.5848560355E+01
                       1.9453612542E+00 -1.3755961537E+00  1.8067115338E+01
                       1.9453612542E+00 -1.3755961537E+00  2.1957837846E+01
                       1.9453612542E+00 -1.3755961537E+00  2.5848560355E+01
                       0.0000000000E+00  0.0000000000E+00  1.9442658574E+01
                       0.0000000000E+00  0.0000000000E+00  2.3333381082E+01
                       0.0000000000E+00  0.0000000000E+00  2.7224103591E+01
            xcart      0.0000000000E+00  0.0000000000E+00  0.0000000000E+00
                       0.0000000000E+00  0.0000000000E+00  8.6808000000E+00
                       0.0000000000E+00  0.0000000000E+00  1.7361600000E+01
                       4.3404000000E+00  2.7956000000E+00  4.3404000000E+00
                       4.3404000000E+00  2.7956000000E+00  1.3021200000E+01
                       4.3404000000E+00  2.7956000000E+00  2.1702000000E+01
                       7.5356300000E+01  0.0000000000E+00  2.6910000000E+00
                       7.5356300000E+01  0.0000000000E+00  1.1371800000E+01
                       7.5356300000E+01  0.0000000000E+00  2.0052600000E+01
                       5.9898000000E+00  0.0000000000E+00  5.9898000000E+00
                       5.9898000000E+00  0.0000000000E+00  1.4670600000E+01
                       5.9898000000E+00  0.0000000000E+00  2.3351400000E+01
                       1.6494000000E+00  2.7956000000E+00  7.0314000000E+00
                       1.6494000000E+00  2.7956000000E+00  1.5712200000E+01
                       1.6494000000E+00  2.7956000000E+00  2.4393000000E+01
                       7.0314000000E+00  2.7956000000E+00  1.6494000000E+00
                       7.0314000000E+00  2.7956000000E+00  1.0330200000E+01
                       7.0314000000E+00  2.7956000000E+00  1.9011000000E+01
                       1.6494000000E+00  0.0000000000E+00  3.1542400000E+01
                       1.6494000000E+00  0.0000000000E+00  3.8894800000E+01
                       1.6494000000E+00  0.0000000000E+00  4.6247200000E+01
                       3.6762000000E+00  2.5995000000E+00  3.4141900000E+01
                       3.6762000000E+00  2.5995000000E+00  4.1494300000E+01
                       3.6762000000E+00  2.5995000000E+00  4.8846700000E+01
                       3.6762000000E+00 -2.5995000000E+00  3.4141900000E+01
                       3.6762000000E+00 -2.5995000000E+00  4.1494300000E+01
                       3.6762000000E+00 -2.5995000000E+00  4.8846700000E+01
                       0.0000000000E+00  0.0000000000E+00  3.6741300000E+01
                       0.0000000000E+00  0.0000000000E+00  4.4093700000E+01
                       0.0000000000E+00  0.0000000000E+00  5.1446100000E+01
             xred      0.0000000000E+00  0.0000000000E+00  0.0000000000E+00
                       0.0000000000E+00  0.0000000000E+00  1.4468000000E-01
                       0.0000000000E+00  0.0000000000E+00  2.8936000000E-01
                       5.0000000000E-01  3.2204405124E-01  7.2340000000E-02
                       5.0000000000E-01  3.2204405124E-01  2.1702000000E-01
                       5.0000000000E-01  3.2204405124E-01  3.6170000000E-01
                       8.6808013086E+00  0.0000000000E+00  4.4850000000E-02
                       8.6808013086E+00  0.0000000000E+00  1.8953000000E-01
                       8.6808013086E+00  0.0000000000E+00  3.3421000000E-01
                       6.9000552944E-01  0.0000000000E+00  9.9830000000E-02
                       6.9000552944E-01  0.0000000000E+00  2.4451000000E-01
                       6.9000552944E-01  0.0000000000E+00  3.8919000000E-01
                       1.9000552944E-01  3.2204405124E-01  1.1719000000E-01
                       1.9000552944E-01  3.2204405124E-01  2.6187000000E-01
                       1.9000552944E-01  3.2204405124E-01  4.0655000000E-01
                       8.0999447056E-01  3.2204405124E-01  2.7490000000E-02
                       8.0999447056E-01  3.2204405124E-01  1.7217000000E-01
                       8.0999447056E-01  3.2204405124E-01  3.1685000000E-01
                       1.9000552944E-01  0.0000000000E+00  5.2570666667E-01
                       1.9000552944E-01  0.0000000000E+00  6.4824666667E-01
                       1.9000552944E-01  0.0000000000E+00  7.7078666667E-01
                       4.2348631463E-01  2.9945396738E-01  5.6903166667E-01
                       4.2348631463E-01  2.9945396738E-01  6.9157166667E-01
                       4.2348631463E-01  2.9945396738E-01  8.1411166667E-01
                       4.2348631463E-01 -2.9945396738E-01  5.6903166667E-01
                       4.2348631463E-01 -2.9945396738E-01  6.9157166667E-01
                       4.2348631463E-01 -2.9945396738E-01  8.1411166667E-01
                       0.0000000000E+00  0.0000000000E+00  6.1235500000E-01
                       0.0000000000E+00  0.0000000000E+00  7.3489500000E-01
                       0.0000000000E+00  0.0000000000E+00  8.5743500000E-01
            znucl       22.00000    8.00000   46.00000

================================================================================

- Total cpu        time (s,m,h):       6694.1      111.57      1.859
- Total wall clock time (s,m,h):       6710.5      111.84      1.864
-
- For major independent code sections, cpu and wall times (sec),
-  as well as % of the time and number of calls for node 0-
-<BEGIN_TIMER mpi_nprocs = 1, omp_nthreads = 1, mpi_rank = 0>
- cpu_time =         6694.1, wall_time =         6710.5
-
- routine                        cpu     %       wall     %      number of calls  Gflops    Speedup Efficacity
-                                                                  (-1=no count)
- projbd                      2750.953  41.1   2756.917  41.1          35128      -1.00        1.00       1.00
- nonlop(apply)               1930.500  28.8   1931.885  28.8          21980      -1.00        1.00       1.00
- fourwf%(pot)                 921.406  13.8    923.988  13.8          21980      -1.00        1.00       1.00
- vtowfk(ssdiag)               431.750   6.4    433.795   6.5             -1      -1.00        1.00       1.00
- nonlop(forstr)               112.969   1.7    113.608   1.7            360      -1.00        0.99       0.99
- fourwf%(den)                  88.766   1.3     89.113   1.3           3600      -1.00        1.00       1.00
- others (107)                  66.234   1.0     66.096   1.0             -1      -1.00        1.00       1.00
-<END_TIMER>
-
- subtotal                    6302.578  94.2   6315.402  94.1                                  1.00       1.00

- For major independent code sections, cpu and wall times (sec),
- as well as % of the total time and number of calls 

-<BEGIN_TIMER mpi_nprocs = 1, omp_nthreads = 1, mpi_rank = world>
- cpu_time =        6694.1, wall_time =        6710.5
-
- routine                         cpu     %       wall     %      number of calls Gflops    Speedup Efficacity
-                                                                  (-1=no count)
- projbd                      2750.953  41.1   2756.917  41.1          35128      -1.00        1.00       1.00
- nonlop(apply)               1930.500  28.8   1931.885  28.8          21980      -1.00        1.00       1.00
- fourwf%(pot)                 921.406  13.8    923.988  13.8          21980      -1.00        1.00       1.00
- vtowfk(ssdiag)               431.750   6.4    433.795   6.5             -1      -1.00        1.00       1.00
- nonlop(forstr)               112.969   1.7    113.608   1.7            360      -1.00        0.99       0.99
- fourwf%(den)                  88.766   1.3     89.113   1.3           3600      -1.00        1.00       1.00
- others (107)                  66.234   1.0     66.096   1.0             -1      -1.00        1.00       1.00
-<END_TIMER>

- subtotal                    6302.578  94.2   6315.402  94.1                                  1.00       1.00

================================================================================

 Suggested references for the acknowledgment of ABINIT usage.

 The users of ABINIT have little formal obligations with respect to the ABINIT group
 (those specified in the GNU General Public License, http://www.gnu.org/copyleft/gpl.txt).
 However, it is common practice in the scientific literature,
 to acknowledge the efforts of people that have made the research possible.
 In this spirit, please find below suggested citations of work written by ABINIT developers,
 corresponding to implementations inside of ABINIT that you have used in the present run.
 Note also that it will be of great value to readers of publications presenting these results,
 to read papers enabling them to understand the theoretical formalism and details
 of the ABINIT implementation.
 For information on why they are suggested, see also https://www.abinit.org/about/?text=acknowledgments.
-
- [1] Recent developments in the ABINIT software package.
- Computer Phys. Comm. 205, 106 (2016).
- X.Gonze, F.Jollet, F.Abreu Araujo, D.Adams, B.Amadon, T.Applencourt,
- C.Audouze, J.-M.Beuken, J.Bieder, A.Bokhanchuk, E.Bousquet, F.Bruneval
- D.Caliste, M.Cote, F.Dahm, F.Da Pieve, M.Delaveau, M.Di Gennaro,
- B.Dorado, C.Espejo, G.Geneste, L.Genovese, A.Gerossier, M.Giantomassi,
- Y.Gillet, D.R.Hamann, L.He, G.Jomard, J.Laflamme Janssen, S.Le Roux,
- A.Levitt, A.Lherbier, F.Liu, I.Lukacevic, A.Martin, C.Martins,
- M.J.T.Oliveira, S.Ponce, Y.Pouillon, T.Rangel, G.-M.Rignanese,
- A.H.Romero, B.Rousseau, O.Rubel, A.A.Shukri, M.Stankovski, M.Torrent,
- M.J.Van Setten, B.Van Troeye, M.J.Verstraete, D.Waroquier, J.Wiktor,
- B.Xue, A.Zhou, J.W.Zwanziger.
- Comment : the fourth generic paper describing the ABINIT project.
- Note that a version of this paper, that is not formatted for Computer Phys. Comm. 
- is available at https://www.abinit.org/about/ABINIT16.pdf .
- The licence allows the authors to put it on the Web.
-
- [2] Optimized norm-conserving Vanderbilt pseudopotentials.
- D.R. Hamann, Phys. Rev. B 88, 085117 (2013).
- Comment: Some pseudopotential generated using the ONCVPSP code were used.
-
- [3] ABINIT : First-principles approach of materials and nanosystem properties.
- Computer Phys. Comm. 180, 2582-2615 (2009).
- X. Gonze, B. Amadon, P.-M. Anglade, J.-M. Beuken, F. Bottin, P. Boulanger, F. Bruneval,
- D. Caliste, R. Caracas, M. Cote, T. Deutsch, L. Genovese, Ph. Ghosez, M. Giantomassi
- S. Goedecker, D.R. Hamann, P. Hermet, F. Jollet, G. Jomard, S. Leroux, M. Mancini, S. Mazevet,
- M.J.T. Oliveira, G. Onida, Y. Pouillon, T. Rangel, G.-M. Rignanese, D. Sangalli, R. Shaltaf,
- M. Torrent, M.J. Verstraete, G. Zerah, J.W. Zwanziger
- Comment : the third generic paper describing the ABINIT project.
- Note that a version of this paper, that is not formatted for Computer Phys. Comm. 
- is available at https://www.abinit.org/about/ABINIT_CPC_v10.pdf .
- The licence allows the authors to put it on the Web.
-
- [4] A brief introduction to the ABINIT software package.
- Z. Kristallogr. 220, 558-562 (2005).
- X. Gonze, G.-M. Rignanese, M. Verstraete, J.-M. Beuken, Y. Pouillon, R. Caracas, F. Jollet,
- M. Torrent, G. Zerah, M. Mikami, Ph. Ghosez, M. Veithen, J.-Y. Raty, V. Olevano, F. Bruneval,
- L. Reining, R. Godby, G. Onida, D.R. Hamann, and D.C. Allan.
- Comment : the second generic paper describing the ABINIT project. Note that this paper
- should be cited especially if you are using the GW part of ABINIT, as several authors
- of this part are not in the list of authors of the first or third paper.
- The .pdf of the latter paper is available at https://www.abinit.org/about/zfk_0505-06_558-562.pdf.
- Note that it should not redistributed (Copyright by Oldenburg Wissenshaftverlag,
- the licence allows the authors to put it on the Web).
-
- And optionally:
-
- [5] First-principles computation of material properties : the ABINIT software project. 
- X. Gonze, J.-M. Beuken, R. Caracas, F. Detraux, M. Fuchs, G.-M. Rignanese, L. Sindic,
- M. Verstraete, G. Zerah, F. Jollet, M. Torrent, A. Roy, M. Mikami, Ph. Ghosez, J.-Y. Raty, D.C. Allan.
- Computational Materials Science 25, 478-492 (2002). http://dx.doi.org/10.1016/S0927-0256(02)00325-7
- Comment : the original paper describing the ABINIT project.
-
- Proc.   0 individual time (sec): cpu=       6694.1  wall=       6710.5

================================================================================

 Calculation completed.
.Delivered   3 WARNINGs and   2 COMMENTs to log file.
+Overall time at end (sec) : cpu=       6694.1  wall=       6710.5
