
.Version 8.6.3 of ABINIT 
.(sequential version, prepared for a x86_64_linux_gnu5.4 computer) 

.Copyright (C) 1998-2017 ABINIT group . 
 ABINIT comes with ABSOLUTELY NO WARRANTY.
 It is free software, and you are welcome to redistribute it
 under certain conditions (GNU General Public License,
 see ~abinit/COPYING or http://www.gnu.org/copyleft/gpl.txt).

 ABINIT is a project of the Universite Catholique de Louvain,
 Corning Inc. and other collaborators, see ~abinit/doc/developers/contributors.txt .
 Please read ~abinit/doc/users/acknowledgments.html for suggested
 acknowledgments of the ABINIT effort.
 For more information, see https://www.abinit.org .

.Starting date : Fri 27 Apr 2018.
- ( at 11h51 )
  
- input  file    -> RutileGeom2.in
- output file    -> RutileGeom2.out
- root for input  files -> RutileGeom2_i
- root for output files -> RutileGeom2_o


 Symmetries : space group P-4 2_1 m (#113); Bravais tP (primitive tetrag.)
================================================================================
 Values of the parameters that define the memory need of the present run
     intxc =       0    ionmov =       2      iscf =       7    lmnmax =       2
     lnmax =       2     mgfft =     125  mpssoang =       3    mqgrid =    6054
     natom =       6  nloc_mem =       1    nspden =       1   nspinor =       1
    nsppol =       1      nsym =       8    n1xccc =    2501    ntypat =       2
    occopt =       1   xclevel =       2
-    mband =          17        mffmem =           1         mkmem =           8
       mpw =       74872          nfft =     1250000          nkpt =           8
================================================================================
P This job should need less than                     564.222 Mbytes of memory.
  Rough estimation (10% accuracy) of disk space for files :
_ WF disk file :    155.376 Mbytes ; DEN or POT disk file :      9.539 Mbytes.
================================================================================

--------------------------------------------------------------------------------
------------- Echo of variables that govern the present computation ------------
--------------------------------------------------------------------------------
-
- outvars: echo of selected default values                                      
-   iomode0 =  0 , fftalg0 =112 , wfoptalg0 =  0
-
- outvars: echo of global parameters not present in the input file              
-  max_nthreads =    0
-
 -outvars: echo values of preprocessed input variables --------
            acell      8.6808000000E+00  5.5911000000E+00  8.6808000000E+00 Bohr
              amu      4.78800000E+01  1.59994000E+01
           diemac      1.20000000E+01
          dilatmx      2.00000000E+00
             ecut      6.00000000E+01 Hartree
           ecutsm      5.00000000E-01 Hartree
-          fftalg         112
           getwfk          -1
           ionmov           2
              ixc          11
              kpt     -2.50000000E-01  5.00000000E-01  0.00000000E+00
                       5.00000000E-01 -2.50000000E-01  0.00000000E+00
                      -2.50000000E-01 -2.50000000E-01  2.50000000E-01
                      -2.50000000E-01  0.00000000E+00  0.00000000E+00
                       5.00000000E-01  5.00000000E-01  2.50000000E-01
                       0.00000000E+00 -2.50000000E-01  0.00000000E+00
                       5.00000000E-01 -2.50000000E-01  5.00000000E-01
                       5.00000000E-01  0.00000000E+00  2.50000000E-01
         kptrlatt        2   -2    2      0    4    0     -2   -2    2
          kptrlen      2.23644000E+01
P           mkmem           8
            natom           6
            nband          17
            ngfft         125      80     125
             nkpt           8
            nstep          20
             nsym           8
            ntime          30
           ntypat           2
              occ      2.000000  2.000000  2.000000  2.000000  2.000000  2.000000
                       2.000000  2.000000  2.000000  2.000000  2.000000  2.000000
                       2.000000  2.000000  2.000000  2.000000  0.000000
          optcell           1
           shiftk      5.00000000E-01  0.00000000E+00  5.00000000E-01
          spgroup         113
           symrel      1  0  0   0  1  0   0  0  1       1  0  0   0 -1  0   0  0 -1
                      -1  0  0   0  1  0   0  0 -1      -1  0  0   0 -1  0   0  0  1
                       0  0  1   0  1  0   1  0  0       0  0  1   0 -1  0  -1  0  0
                       0  0 -1   0  1  0  -1  0  0       0  0 -1   0 -1  0   1  0  0
            tnons      0.0000000  0.0000000  0.0000000     0.5000000 -0.4999911  0.5000000
                       0.0000000  0.0000000  0.0000000     0.5000000 -0.4999911  0.5000000
                       0.0000000  0.0000000  0.0000000     0.5000000 -0.4999911  0.5000000
                       0.0000000  0.0000000  0.0000000     0.5000000 -0.4999911  0.5000000
           toldfe      1.00000000E-04 Hartree
            typat      1  1  2  2  2  2
              wtk        0.12500    0.12500    0.25000    0.12500    0.12500    0.06250
                         0.06250    0.12500
           xangst      0.0000000000E+00  0.0000000000E+00  0.0000000000E+00
                       2.2968407562E+00  1.4793678043E+00  2.2968407562E+00
                       3.1696656440E+00  0.0000000000E+00  1.4240158683E+00
                       1.4240158683E+00  0.0000000000E+00  3.1696656440E+00
                       8.7282488785E-01  1.4793678043E+00  8.7282488785E-01
                       3.7208566245E+00  1.4793678043E+00  3.7208566245E+00
            xcart      0.0000000000E+00  0.0000000000E+00  0.0000000000E+00
                       4.3404000000E+00  2.7956000000E+00  4.3404000000E+00
                       5.9898000000E+00  0.0000000000E+00  2.6910000000E+00
                       2.6910000000E+00  0.0000000000E+00  5.9898000000E+00
                       1.6494000000E+00  2.7956000000E+00  1.6494000000E+00
                       7.0314000000E+00  2.7956000000E+00  7.0314000000E+00
             xred      0.0000000000E+00  0.0000000000E+00  0.0000000000E+00
                       5.0000000000E-01  5.0000894278E-01  5.0000000000E-01
                       6.9000552944E-01  0.0000000000E+00  3.0999447056E-01
                       3.0999447056E-01  0.0000000000E+00  6.9000552944E-01
                       1.9000552944E-01  5.0000894278E-01  1.9000552944E-01
                       8.0999447056E-01  5.0000894278E-01  8.0999447056E-01
            znucl       22.00000    8.00000

================================================================================

 chkinp: Checking input parameters for consistency.

 chkinp: WARNING -
   Chksymbreak=1 . Found potentially symmetry-breaking value of tnons, 
   which is neither a rational fraction in 1/8th nor in 1/12th :
   for the symmetry number    2
   symrel is   1  0  0  0 -1  0  0  0 -1
   tnons is     5.000000E-01   -4.999911E-01    5.000000E-01
   Please, read the description of the input variable chksymbreak,
   then, if you feel confident, you might switch it to zero, or consult with the forum.

 chkinp: WARNING -
   Chksymbreak=1 . Found potentially symmetry-breaking value of tnons, 
   which is neither a rational fraction in 1/8th nor in 1/12th :
   for the symmetry number    4
   symrel is  -1  0  0  0 -1  0  0  0  1
   tnons is     5.000000E-01   -4.999911E-01    5.000000E-01
   Please, read the description of the input variable chksymbreak,
   then, if you feel confident, you might switch it to zero, or consult with the forum.

 chkinp: WARNING -
   Chksymbreak=1 . Found potentially symmetry-breaking value of tnons, 
   which is neither a rational fraction in 1/8th nor in 1/12th :
   for the symmetry number    6
   symrel is   0  0  1  0 -1  0 -1  0  0
   tnons is     5.000000E-01   -4.999911E-01    5.000000E-01
   Please, read the description of the input variable chksymbreak,
   then, if you feel confident, you might switch it to zero, or consult with the forum.

 chkinp: WARNING -
   Chksymbreak=1 . Found potentially symmetry-breaking value of tnons, 
   which is neither a rational fraction in 1/8th nor in 1/12th :
   for the symmetry number    8
   symrel is   0  0 -1  0 -1  0  1  0  0
   tnons is     5.000000E-01   -4.999911E-01    5.000000E-01
   Please, read the description of the input variable chksymbreak,
   then, if you feel confident, you might switch it to zero, or consult with the forum.

================================================================================
== DATASET  1 ==================================================================
-   nproc =    1

 Exchange-correlation functional for the present dataset will be:
  GGA: Perdew-Burke-Ernzerhof functional - ixc=11
 Citation for XC functional:
  J.P.Perdew, K.Burke, M.Ernzerhof, PRL 77, 3865 (1996)

 Real(R)+Recip(G) space primitive vectors, cartesian coordinates (Bohr,Bohr^-1):
 R(1)=  8.6808000  0.0000000  0.0000000  G(1)=  0.1151968  0.0000000  0.0000000
 R(2)=  0.0000000  5.5911000  0.0000000  G(2)=  0.0000000  0.1788557  0.0000000
 R(3)=  0.0000000  0.0000000  8.6808000  G(3)=  0.0000000  0.0000000  0.1151968
 Unit cell volume ucvol=  4.2132455E+02 bohr^3
 Angles (23,13,12)=  9.00000000E+01  9.00000000E+01  9.00000000E+01 degrees

 getcut: wavevector=  0.0000  0.0000  0.0000  ngfft= 125  80 125
         ecut(hartree)=    240.000   => boxcut(ratio)=   2.04829

--- Pseudopotential description ------------------------------------------------
- pspini: atom type   1  psp file is ../../../Psps_for_tests/22ti.pspnc
- pspatm: opening atomic psp file    ../../../Psps_for_tests/22ti.pspnc
-  Troullier-Martins psp for element  Ti        Thu Oct 27 17:33:40 EDT 1994
- 22.00000   4.00000    940714                znucl, zion, pspdat
    1    1    2    0      2001   0.00000      pspcod,pspxc,lmax,lloc,mmax,r2well
    0   5.166   8.509    0   2.4203472        l,e99.0,e99.9,nproj,rcpsp
   0.00000000   0.00000000   0.00000000   0.00000000     rms, ekb1, ekb2, epsatm
    1   2.285   3.944    1   2.9934301        l,e99.0,e99.9,nproj,rcpsp
   0.00000000   0.00000000   0.00000000   0.00000000     rms, ekb1, ekb2, epsatm
    2  20.947  27.069    1   1.9326638        l,e99.0,e99.9,nproj,rcpsp
   0.00000000   0.00000000   0.00000000   0.00000000     rms, ekb1, ekb2, epsatm
    2.82741504495369    0.09256629068341    1.82586447305099   rchrg,fchrg,qchrg
  pspatm : epsatm=   66.67453488
         --- l  ekb(1:nproj) -->
             1    0.915537
             2   -8.015692
 pspatm: atomic psp has been read  and splines computed

- pspini: atom type   2  psp file is ../../../Psps_for_tests/8o.pspnc
- pspatm: opening atomic psp file    ../../../Psps_for_tests/8o.pspnc
-  Troullier-Martins psp for element  O         Thu Oct 27 17:29:57 EDT 1994
-  8.00000   6.00000    940714                znucl, zion, pspdat
    1    1    1    1      2001   0.00000      pspcod,pspxc,lmax,lloc,mmax,r2well
    0   5.480  16.893    1   1.4482335        l,e99.0,e99.9,nproj,rcpsp
   0.00000000   0.00000000   0.00000000   0.00000000     rms, ekb1, ekb2, epsatm
    1  20.911  28.075    0   1.4482335        l,e99.0,e99.9,nproj,rcpsp
   0.00000000   0.00000000   0.00000000   0.00000000     rms, ekb1, ekb2, epsatm
    0.56990156784787    3.95561236318184    0.63894027514378   rchrg,fchrg,qchrg
  pspatm : epsatm=    1.57752239
         --- l  ekb(1:nproj) -->
             0    5.670783
 pspatm: atomic psp has been read  and splines computed

   4.46909310E+03                                ecore*ucvol(ha*bohr**3)
--------------------------------------------------------------------------------

_setup2: Arith. and geom. avg. npw (full set) are   74824.813   74824.802

================================================================================

=== [ionmov= 2] Broyden-Fletcher-Goldfard-Shanno method (forces)            
================================================================================

--- Iteration: ( 1/30) Internal Cycle: (1/1)
--------------------------------------------------------------------------------

---SELF-CONSISTENT-FIELD CONVERGENCE--------------------------------------------

     iter   Etot(hartree)      deltaE(h)  residm     vres2
 ETOT  1  -74.397105257388    -7.440E+01 2.363E-01 1.558E+04
 ETOT  2  -74.752720343023    -3.556E-01 1.078E-02 1.726E+04
 ETOT  3  -75.079559177126    -3.268E-01 5.045E-03 1.094E+03
 ETOT  4  -75.122866968171    -4.331E-02 3.504E-03 3.127E+01
 ETOT  5  -75.123947869755    -1.081E-03 1.880E-03 2.667E+00
 ETOT  6  -75.124113145835    -1.653E-04 9.938E-04 7.311E-01
 ETOT  7  -75.124166747272    -5.360E-05 1.287E-03 1.549E-01
 ETOT  8  -75.124182713835    -1.597E-05 6.730E-04 1.520E-02

 At SCF step    8, etot is converged : 
  for the second time, diff in etot=  1.597E-05 < toldfe=  1.000E-04

 Cartesian components of stress tensor (hartree/bohr^3)
  sigma(1 1)= -1.53278181E-03  sigma(3 2)=  0.00000000E+00
  sigma(2 2)= -2.24756272E-03  sigma(3 1)=  0.00000000E+00
  sigma(3 3)= -1.53278181E-03  sigma(2 1)=  0.00000000E+00

 Integrated electronic density in atomic spheres:
 ------------------------------------------------
 Atom  Sphere_radius  Integrated_density
    1        2.00000          1.70726020
    2        2.00000          1.70779660
    3        2.00000          6.21332153
    4        2.00000          6.21332153
    5        2.00000          6.21300970
    6        2.00000          6.21300970

---OUTPUT-----------------------------------------------------------------------

 Cartesian coordinates (xcart) [bohr]
  0.00000000000000E+00  0.00000000000000E+00  0.00000000000000E+00
  4.34040000000000E+00  2.79560000000000E+00  4.34040000000000E+00
  5.98980000000000E+00  0.00000000000000E+00  2.69100000000000E+00
  2.69100000000000E+00  0.00000000000000E+00  5.98980000000000E+00
  1.64940000000000E+00  2.79560000000000E+00  1.64940000000000E+00
  7.03140000000000E+00  2.79560000000000E+00  7.03140000000000E+00
 Reduced coordinates (xred)
  0.00000000000000E+00  0.00000000000000E+00  0.00000000000000E+00
  5.00000000000000E-01  5.00008942784067E-01  5.00000000000000E-01
  6.90005529444291E-01  0.00000000000000E+00  3.09994470555709E-01
  3.09994470555709E-01  0.00000000000000E+00  6.90005529444291E-01
  1.90005529444291E-01  5.00008942784067E-01  1.90005529444291E-01
  8.09994470555709E-01  5.00008942784067E-01  8.09994470555709E-01
 Cartesian forces (fcart) [Ha/bohr]; max,rms= 3.26307E-02 2.17538E-02 (free atoms)
 -0.00000000000000E+00 -1.10518889608653E-05 -0.00000000000000E+00
 -0.00000000000000E+00  1.10518889608653E-05 -0.00000000000000E+00
  3.26307393551978E-02  1.32397656729770E-05 -3.26307393551978E-02
 -3.26307393551978E-02  1.32397656729770E-05  3.26307393551978E-02
  3.26307393551978E-02 -1.32397656729770E-05  3.26307393551978E-02
 -3.26307393551978E-02 -1.32397656729770E-05 -3.26307393551978E-02
 Reduced forces (fred)
  0.00000000000000E+00  6.17922163690942E-05  0.00000000000000E+00
 -0.00000000000000E+00 -6.17922163690942E-05 -0.00000000000000E+00
 -2.83260922194601E-01 -7.40248538541819E-05  2.83260922194601E-01
  2.83260922194601E-01 -7.40248538541818E-05 -2.83260922194601E-01
 -2.83260922194601E-01  7.40248538541818E-05 -2.83260922194601E-01
  2.83260922194601E-01  7.40248538541819E-05  2.83260922194601E-01
 Scale of Primitive Cell (acell) [bohr]
  8.68080000000000E+00  5.59110000000000E+00  8.68080000000000E+00
 Real space primitive translations (rprimd) [bohr]
  8.68080000000000E+00  0.00000000000000E+00  0.00000000000000E+00
  0.00000000000000E+00  5.59110000000000E+00  0.00000000000000E+00
  0.00000000000000E+00  0.00000000000000E+00  8.68080000000000E+00
 Unitary Cell Volume (ucvol) [Bohr^3]=  4.21324545415104E+02
 Angles (23,13,12)= [degrees]
  9.00000000000000E+01  9.00000000000000E+01  9.00000000000000E+01
 Lengths [Bohr]
  8.68080000000000E+00  5.59110000000000E+00  8.68080000000000E+00
 Stress tensor in cartesian coordinates (strten) [Ha/bohr^3]
 -1.53278181370287E-03  0.00000000000000E+00  0.00000000000000E+00
  0.00000000000000E+00 -2.24756271797456E-03  0.00000000000000E+00
  0.00000000000000E+00  0.00000000000000E+00 -1.53278181370287E-03
 Total energy (etotal) [Ha]= -7.51241827138350E+01

--- Iteration: ( 2/30) Internal Cycle: (1/1)
--------------------------------------------------------------------------------

---SELF-CONSISTENT-FIELD CONVERGENCE--------------------------------------------

     iter   Etot(hartree)      deltaE(h)  residm     vres2
 ETOT  1  -75.122342660032    -7.512E+01 1.428E-03 1.193E+03
 ETOT  2  -75.106776328463     1.557E-02 1.107E-03 1.507E+03
 ETOT  3  -75.134268009433    -2.749E-02 6.905E-04 2.691E+02
 ETOT  4  -75.141441981062    -7.174E-03 9.210E-04 6.500E+00
 ETOT  5  -75.141733497170    -2.915E-04 5.426E-04 9.222E-01
 ETOT  6  -75.141730877726     2.619E-06 7.204E-04 1.686E+00
 ETOT  7  -75.141765150949    -3.427E-05 4.370E-04 2.152E-02

 At SCF step    7, etot is converged : 
  for the second time, diff in etot=  3.427E-05 < toldfe=  1.000E-04

 Cartesian components of stress tensor (hartree/bohr^3)
  sigma(1 1)= -1.31642687E-03  sigma(3 2)=  0.00000000E+00
  sigma(2 2)= -1.77668329E-03  sigma(3 1)=  0.00000000E+00
  sigma(3 3)= -1.31642687E-03  sigma(2 1)=  0.00000000E+00

 Integrated electronic density in atomic spheres:
 ------------------------------------------------
 Atom  Sphere_radius  Integrated_density
    1        2.00000          1.67654593
    2        2.00000          1.67752889
    3        2.00000          6.19593430
    4        2.00000          6.19593430
    5        2.00000          6.19671878
    6        2.00000          6.19671878

---OUTPUT-----------------------------------------------------------------------

 Cartesian coordinates (xcart) [bohr]
  0.00000000000000E+00 -1.11106090432695E-05  0.00000000000000E+00
  4.36346109358949E+00  2.81046448662019E+00  4.36346109358949E+00
  6.05442867477969E+00  1.33101102207808E-05  2.67249351239928E+00
  2.67249351239928E+00  1.33101102207808E-05  6.05442867477969E+00
  1.69096758119021E+00  2.81044006590092E+00  1.69096758119021E+00
  7.03595460598877E+00  2.81044006590092E+00  7.03595460598877E+00
 Reduced coordinates (xred)
  0.00000000000000E+00 -1.97669313030805E-06  0.00000000000000E+00
  5.00000000000000E-01  5.00010919477198E-01  5.00000000000000E-01
  6.93764484765828E-01  2.36800731036415E-06  3.06235515234172E-01
  3.06235515234172E-01  2.36800731036415E-06  6.93764484765828E-01
  1.93764484765828E-01  5.00006574776757E-01  1.93764484765828E-01
  8.06235515234172E-01  5.00006574776757E-01  8.06235515234172E-01
 Cartesian forces (fcart) [Ha/bohr]; max,rms= 1.82929E-02 1.21953E-02 (free atoms)
 -5.78241158658936E-19  1.40852978815254E-05  5.78241158658936E-19
 -5.78241158658936E-19 -1.40852978815254E-05  5.78241158658936E-19
  1.82928869924230E-02  5.29313735370511E-06 -1.82928869924230E-02
 -1.82928869924230E-02  5.29313735370511E-06  1.82928869924230E-02
  1.82928869924230E-02 -5.29313735370511E-06  1.82928869924230E-02
 -1.82928869924230E-02 -5.29313735370511E-06 -1.82928869924230E-02
 Reduced forces (fred)
  5.04626559704074E-18 -7.91707299530266E-05 -5.04626559704074E-18
  5.04626559704074E-18  7.91707299530266E-05 -5.04626559704074E-18
 -1.59640601361734E-01 -2.97516993647764E-05  1.59640601361734E-01
  1.59640601361734E-01 -2.97516993647764E-05 -1.59640601361734E-01
 -1.59640601361734E-01  2.97516993647764E-05 -1.59640601361734E-01
  1.59640601361734E-01  2.97516993647764E-05  1.59640601361734E-01
 Scale of Primitive Cell (acell) [bohr]
  8.72692218717898E+00  5.62080622070966E+00  8.72692218717898E+00
 Real space primitive translations (rprimd) [bohr]
  8.72692218717898E+00  0.00000000000000E+00  0.00000000000000E+00
  0.00000000000000E+00  5.62080622070966E+00  0.00000000000000E+00
  0.00000000000000E+00  0.00000000000000E+00  8.72692218717898E+00
 Unitary Cell Volume (ucvol) [Bohr^3]=  4.28075941340029E+02
 Angles (23,13,12)= [degrees]
  9.00000000000000E+01  9.00000000000000E+01  9.00000000000000E+01
 Lengths [Bohr]
  8.72692218717898E+00  5.62080622070966E+00  8.72692218717898E+00
 Stress tensor in cartesian coordinates (strten) [Ha/bohr^3]
 -1.31642686932384E-03  0.00000000000000E+00  0.00000000000000E+00
  0.00000000000000E+00 -1.77668328928361E-03  0.00000000000000E+00
  0.00000000000000E+00  0.00000000000000E+00 -1.31642686932384E-03
 Total energy (etotal) [Ha]= -7.51417651509488E+01

 Difference of energy with previous step (new-old):
           Absolute (Ha)=-1.75824E-02
           Relative     =-2.34018E-04

--- Iteration: ( 3/30) Internal Cycle: (1/1)
--------------------------------------------------------------------------------

---SELF-CONSISTENT-FIELD CONVERGENCE--------------------------------------------

     iter   Etot(hartree)      deltaE(h)  residm     vres2
 ETOT  1  -74.952973265204    -7.495E+01 2.944E-03 9.674E+03
 ETOT  2  -74.577525907322     3.754E-01 9.226E-04 2.568E+04
 ETOT  3  -75.149817981507    -5.723E-01 6.496E-03 3.696E+02
 ETOT  4  -75.165580402191    -1.576E-02 7.066E-04 6.466E+01
 ETOT  5  -75.165206469171     3.739E-04 1.819E-04 1.802E+02
 ETOT  6  -75.169044552641    -3.838E-03 3.370E-04 1.191E+01
 ETOT  7  -75.169248874235    -2.043E-04 7.432E-05 9.561E+00
 ETOT  8  -75.169387555607    -1.387E-04 1.849E-04 2.833E+00
 ETOT  9  -75.169446867643    -5.931E-05 4.168E-05 3.821E-02
 ETOT 10  -75.169448297927    -1.430E-06 1.325E-04 2.511E-02

 At SCF step   10, etot is converged : 
  for the second time, diff in etot=  1.430E-06 < toldfe=  1.000E-04

 Cartesian components of stress tensor (hartree/bohr^3)
  sigma(1 1)= -7.75932065E-04  sigma(3 2)=  0.00000000E+00
  sigma(2 2)= -7.92185696E-04  sigma(3 1)=  0.00000000E+00
  sigma(3 3)= -7.75932065E-04  sigma(2 1)=  0.00000000E+00

 Integrated electronic density in atomic spheres:
 ------------------------------------------------
 Atom  Sphere_radius  Integrated_density
    1        2.00000          1.61225465
    2        2.00000          1.61261346
    3        2.00000          6.14993674
    4        2.00000          6.14993674
    5        2.00000          6.14885872
    6        2.00000          6.14885872

---OUTPUT-----------------------------------------------------------------------

 Cartesian coordinates (xcart) [bohr]
 -4.16822389594880E-18  3.87912025848306E-05  4.16822389594880E-18
  4.44043279024755E+00  2.85999113885365E+00  4.44043279024755E+00
  6.23851462434651E+00  3.68958205550473E-05  2.64235095614859E+00
  2.64235095614859E+00  3.68958205550473E-05  6.23851462434651E+00
  1.79808183409896E+00  2.85999303423567E+00  1.79808183409896E+00
  7.08278374639614E+00  2.85999303423567E+00  7.08278374639614E+00
 Reduced coordinates (xred)
 -4.69348832967746E-19  6.78172909658412E-06  4.69348832967746E-19
  5.00000000000000E-01  5.00002161054971E-01  5.00000000000000E-01
  7.02466957505590E-01  6.45036614302745E-06  2.97533042494410E-01
  2.97533042494410E-01  6.45036614302745E-06  7.02466957505590E-01
  2.02466957505590E-01  5.00002492417924E-01  2.02466957505590E-01
  7.97533042494410E-01  5.00002492417924E-01  7.97533042494410E-01
 Cartesian forces (fcart) [Ha/bohr]; max,rms= 9.63308E-03 6.42206E-03 (free atoms)
  2.89120579329468E-19  1.12800625051436E-06 -2.89120579329468E-19
  2.89120579329468E-19 -1.12800625051436E-06 -2.89120579329468E-19
 -9.63308290168369E-03 -9.50837859599575E-07  9.63308290168369E-03
  9.63308290168369E-03 -9.50837859599575E-07 -9.63308290168369E-03
 -9.63308290168369E-03  9.50837859599575E-07 -9.63308290168369E-03
  9.63308290168369E-03  9.50837859599575E-07  9.63308290168369E-03
 Reduced forces (fred)
 -2.56764100157987E-18 -6.45214787519271E-06  2.56764100157987E-18
 -2.56764100157987E-18  6.45214787519271E-06  2.56764100157987E-18
  8.55501143756185E-02  5.43875219899775E-06 -8.55501143756186E-02
 -8.55501143756185E-02  5.43875219899775E-06  8.55501143756185E-02
  8.55501143756186E-02 -5.43875219899775E-06  8.55501143756185E-02
 -8.55501143756185E-02 -5.43875219899775E-06 -8.55501143756185E-02
 Scale of Primitive Cell (acell) [bohr]
  8.88086558049510E+00  5.71995755542187E+00  8.88086558049510E+00
 Real space primitive translations (rprimd) [bohr]
  8.88086558049510E+00  0.00000000000000E+00  0.00000000000000E+00
  0.00000000000000E+00  5.71995755542187E+00  0.00000000000000E+00
  0.00000000000000E+00  0.00000000000000E+00  8.88086558049510E+00
 Unitary Cell Volume (ucvol) [Bohr^3]=  4.51131756590204E+02
 Angles (23,13,12)= [degrees]
  9.00000000000000E+01  9.00000000000000E+01  9.00000000000000E+01
 Lengths [Bohr]
  8.88086558049510E+00  5.71995755542187E+00  8.88086558049510E+00
 Stress tensor in cartesian coordinates (strten) [Ha/bohr^3]
 -7.75932064596686E-04  0.00000000000000E+00  0.00000000000000E+00
  0.00000000000000E+00 -7.92185696408820E-04  0.00000000000000E+00
  0.00000000000000E+00  0.00000000000000E+00 -7.75932064596686E-04
 Total energy (etotal) [Ha]= -7.51694482979267E+01

 Difference of energy with previous step (new-old):
           Absolute (Ha)=-2.76831E-02
           Relative     =-3.68344E-04

--- Iteration: ( 4/30) Internal Cycle: (1/1)
--------------------------------------------------------------------------------

---SELF-CONSISTENT-FIELD CONVERGENCE--------------------------------------------

     iter   Etot(hartree)      deltaE(h)  residm     vres2
 ETOT  1  -75.102697727033    -7.510E+01 5.723E-04 2.727E+03
 ETOT  2  -74.850643235093     2.521E-01 3.850E-04 1.374E+04
 ETOT  3  -75.160705526631    -3.101E-01 2.721E-03 4.716E+02
 ETOT  4  -75.173976822182    -1.327E-02 5.157E-04 5.826E+01
 ETOT  5  -75.173887598786     8.922E-05 5.475E-05 1.170E+02
 ETOT  6  -75.176243374745    -2.356E-03 1.872E-05 5.428E+00
 ETOT  7  -75.176293350470    -4.998E-05 1.530E-05 4.725E+00
 ETOT  8  -75.176387252384    -9.390E-05 9.351E-06 5.368E-01

 At SCF step    8, etot is converged : 
  for the second time, diff in etot=  9.390E-05 < toldfe=  1.000E-04

 Cartesian components of stress tensor (hartree/bohr^3)
  sigma(1 1)= -5.03354673E-04  sigma(3 2)=  0.00000000E+00
  sigma(2 2)= -4.43319932E-04  sigma(3 1)=  0.00000000E+00
  sigma(3 3)= -5.03354673E-04  sigma(2 1)=  0.00000000E+00

 Integrated electronic density in atomic spheres:
 ------------------------------------------------
 Atom  Sphere_radius  Integrated_density
    1        2.00000          1.58689698
    2        2.00000          1.58712319
    3        2.00000          6.12524214
    4        2.00000          6.12524214
    5        2.00000          6.12590790
    6        2.00000          6.12590790

---OUTPUT-----------------------------------------------------------------------

 Cartesian coordinates (xcart) [bohr]
 -4.69581437414678E-18  5.33997269972807E-05  4.69581437414678E-18
  4.48570461037481E+00  2.88913557105077E+00  4.48570461037481E+00
  6.32104630234585E+00  4.68404176283994E-05  2.65036291840379E+00
  2.65036291840379E+00  4.68404176283994E-05  6.32104630234585E+00
  1.83534169197103E+00  2.88914213036014E+00  1.83534169197103E+00
  7.13606752877860E+00  2.88914213036014E+00  7.13606752877860E+00
 Reduced coordinates (xred)
 -5.23419928642427E-19  9.24146579227748E-06  5.23419928642427E-19
  5.00000000000000E-01  4.99999701318275E-01  5.00000000000000E-01
  7.04576744501426E-01  8.10629831929455E-06  2.95423255498575E-01
  2.95423255498575E-01  8.10629831929455E-06  7.04576744501426E-01
  2.04576744501425E-01  5.00000836485748E-01  2.04576744501425E-01
  7.95423255498574E-01  5.00000836485748E-01  7.95423255498574E-01
 Cartesian forces (fcart) [Ha/bohr]; max,rms= 1.52496E-02 1.01664E-02 (free atoms)
 -0.00000000000000E+00  1.67015540106486E-06 -0.00000000000000E+00
 -0.00000000000000E+00 -1.67015540106486E-06 -0.00000000000000E+00
 -1.52495638958158E-02 -7.99014136218483E-06  1.52495638958158E-02
  1.52495638958158E-02 -7.99014136218483E-06 -1.52495638958158E-02
 -1.52495638958158E-02  7.99014136218483E-06 -1.52495638958158E-02
  1.52495638958158E-02  7.99014136218483E-06  1.52495638958158E-02
 Reduced forces (fred)
 -0.00000000000000E+00 -9.65061652172367E-06 -0.00000000000000E+00
  0.00000000000000E+00  9.65061652172367E-06  0.00000000000000E+00
  1.36810078147332E-01  4.61692308342355E-05 -1.36810078147332E-01
 -1.36810078147332E-01  4.61692308342355E-05  1.36810078147332E-01
  1.36810078147332E-01 -4.61692308342355E-05  1.36810078147332E-01
 -1.36810078147332E-01 -4.61692308342355E-05 -1.36810078147332E-01
 Scale of Primitive Cell (acell) [bohr]
  8.97140922074963E+00  5.77827459383159E+00  8.97140922074963E+00
 Real space primitive translations (rprimd) [bohr]
  8.97140922074963E+00  0.00000000000000E+00  0.00000000000000E+00
  0.00000000000000E+00  5.77827459383159E+00  0.00000000000000E+00
  0.00000000000000E+00  0.00000000000000E+00  8.97140922074963E+00
 Unitary Cell Volume (ucvol) [Bohr^3]=  4.65071268730234E+02
 Angles (23,13,12)= [degrees]
  9.00000000000000E+01  9.00000000000000E+01  9.00000000000000E+01
 Lengths [Bohr]
  8.97140922074963E+00  5.77827459383159E+00  8.97140922074963E+00
 Stress tensor in cartesian coordinates (strten) [Ha/bohr^3]
 -5.03354672929859E-04  0.00000000000000E+00  0.00000000000000E+00
  0.00000000000000E+00 -4.43319931918897E-04  0.00000000000000E+00
  0.00000000000000E+00  0.00000000000000E+00 -5.03354672929852E-04
 Total energy (etotal) [Ha]= -7.51763872523845E+01

 Difference of energy with previous step (new-old):
           Absolute (Ha)=-6.93895E-03
           Relative     =-9.23066E-05

--- Iteration: ( 5/30) Internal Cycle: (1/1)
--------------------------------------------------------------------------------

---SELF-CONSISTENT-FIELD CONVERGENCE--------------------------------------------

     iter   Etot(hartree)      deltaE(h)  residm     vres2
 ETOT  1  -75.062340356837    -7.506E+01 1.360E-04 4.299E+03
 ETOT  2  -74.656787769921     4.056E-01 5.450E-04 2.191E+04
 ETOT  3  -75.146213631334    -4.894E-01 3.451E-03 1.166E+03
 ETOT  4  -75.162001393875    -1.579E-02 3.320E-04 7.145E+02
 ETOT  5  -75.169997326448    -7.996E-03 5.663E-04 4.059E+02
 ETOT  6  -75.180449284765    -1.045E-02 3.381E-05 5.951E+01
 ETOT  7  -75.182020946366    -1.572E-03 8.945E-05 9.076E+00
 ETOT  8  -75.182201402484    -1.805E-04 4.036E-06 1.735E+00
 ETOT  9  -75.182175400390     2.600E-05 3.566E-05 3.004E+00
 ETOT 10  -75.182219664147    -4.426E-05 2.649E-06 1.227E+00

 At SCF step   10, etot is converged : 
  for the second time, diff in etot=  4.426E-05 < toldfe=  1.000E-04

 Cartesian components of stress tensor (hartree/bohr^3)
  sigma(1 1)= -1.97888803E-04  sigma(3 2)=  0.00000000E+00
  sigma(2 2)= -1.24734142E-04  sigma(3 1)=  0.00000000E+00
  sigma(3 3)= -1.97888803E-04  sigma(2 1)=  0.00000000E+00

 Integrated electronic density in atomic spheres:
 ------------------------------------------------
 Atom  Sphere_radius  Integrated_density
    1        2.00000          1.55948568
    2        2.00000          1.55755387
    3        2.00000          6.09947478
    4        2.00000          6.09947478
    5        2.00000          6.09803862
    6        2.00000          6.09803862

---OUTPUT-----------------------------------------------------------------------

 Cartesian coordinates (xcart) [bohr]
 -5.44997431881819E-18  6.59657309018018E-05  5.44997431881819E-18
  4.53985121105906E+00  2.92399818633728E+00  4.53985121105906E+00
  6.39613968997287E+00  4.32217116250530E-05  2.68356273214527E+00
  2.68356273214527E+00  4.32217116250530E-05  6.39613968997287E+00
  1.85628847891380E+00  2.92402093035656E+00  1.85628847891380E+00
  7.22341394320433E+00  2.92402093035656E+00  7.22341394320433E+00
 Reduced coordinates (xred)
 -6.00237107500579E-19  1.12800040125177E-05  6.00237107500579E-19
  5.00000000000000E-01  4.99997662780055E-01  5.00000000000000E-01
  7.04443757362784E-01  7.39082359724395E-06  2.95556242637217E-01
  2.95556242637217E-01  7.39082359724395E-06  7.04443757362784E-01
  2.04443757362783E-01  5.00001551960471E-01  2.04443757362783E-01
  7.95556242637216E-01  5.00001551960471E-01  7.95556242637216E-01
 Cartesian forces (fcart) [Ha/bohr]; max,rms= 1.50978E-02 1.00652E-02 (free atoms)
 -5.78241158658936E-19 -1.31196085375363E-05  5.78241158658936E-19
 -5.78241158658805E-19  1.31196085375363E-05  5.78241158658936E-19
 -1.50978309283553E-02 -1.14195201660258E-05  1.50978309283553E-02
  1.50978309283553E-02 -1.14195201660258E-05 -1.50978309283553E-02
 -1.50978309283553E-02  1.14195201660258E-05 -1.50978309283553E-02
  1.50978309283553E-02  1.14195201660258E-05  1.50978309283553E-02
 Reduced forces (fred)
  5.25025764884393E-18  7.67237817791283E-05 -5.25025764884393E-18
  5.25025764884275E-18 -7.67237817791283E-05 -5.25025764884393E-18
  1.37083812048917E-01  6.67816246752929E-05 -1.37083812048917E-01
 -1.37083812048917E-01  6.67816246752929E-05  1.37083812048917E-01
  1.37083812048917E-01 -6.67816246752929E-05  1.37083812048917E-01
 -1.37083812048917E-01 -6.67816246752929E-05 -1.37083812048917E-01
 Scale of Primitive Cell (acell) [bohr]
  9.07970242211813E+00  5.84802370890986E+00  9.07970242211813E+00
 Real space primitive translations (rprimd) [bohr]
  9.07970242211813E+00  0.00000000000000E+00  0.00000000000000E+00
  0.00000000000000E+00  5.84802370890986E+00  0.00000000000000E+00
  0.00000000000000E+00  0.00000000000000E+00  9.07970242211813E+00
 Unitary Cell Volume (ucvol) [Bohr^3]=  4.82116899628170E+02
 Angles (23,13,12)= [degrees]
  9.00000000000000E+01  9.00000000000000E+01  9.00000000000000E+01
 Lengths [Bohr]
  9.07970242211813E+00  5.84802370890986E+00  9.07970242211813E+00
 Stress tensor in cartesian coordinates (strten) [Ha/bohr^3]
 -1.97888803377969E-04  0.00000000000000E+00  0.00000000000000E+00
  0.00000000000000E+00 -1.24734142216015E-04  0.00000000000000E+00
  0.00000000000000E+00  0.00000000000000E+00 -1.97888803377965E-04
 Total energy (etotal) [Ha]= -7.51822196641472E+01

 Difference of energy with previous step (new-old):
           Absolute (Ha)=-5.83241E-03
           Relative     =-7.75800E-05

--- Iteration: ( 6/30) Internal Cycle: (1/1)
--------------------------------------------------------------------------------

---SELF-CONSISTENT-FIELD CONVERGENCE--------------------------------------------

     iter   Etot(hartree)      deltaE(h)  residm     vres2
 ETOT  1  -75.135581095897    -7.514E+01 4.969E-04 1.899E+03
 ETOT  2  -74.936859109062     1.987E-01 3.339E-04 1.012E+04
 ETOT  3  -75.175190411268    -2.383E-01 2.132E-03 2.731E+02
 ETOT  4  -75.183750467661    -8.560E-03 2.498E-04 2.609E+01
 ETOT  5  -75.184080362681    -3.299E-04 6.132E-05 7.032E+01
 ETOT  6  -75.185524645942    -1.444E-03 6.923E-06 8.459E+00
 ETOT  7  -75.185398460488     1.262E-04 1.177E-05 1.346E+01
 ETOT  8  -75.185628003588    -2.295E-04 1.868E-06 3.813E+00
 ETOT  9  -75.185726398339    -9.839E-05 8.568E-06 3.133E-01
 ETOT 10  -75.185731128346    -4.730E-06 1.372E-06 2.353E-01

 At SCF step   10, etot is converged : 
  for the second time, diff in etot=  4.730E-06 < toldfe=  1.000E-04

 Cartesian components of stress tensor (hartree/bohr^3)
  sigma(1 1)= -4.27855224E-05  sigma(3 2)=  0.00000000E+00
  sigma(2 2)=  5.06048201E-06  sigma(3 1)=  0.00000000E+00
  sigma(3 3)= -4.27855224E-05  sigma(2 1)=  0.00000000E+00

 Integrated electronic density in atomic spheres:
 ------------------------------------------------
 Atom  Sphere_radius  Integrated_density
    1        2.00000          1.53621224
    2        2.00000          1.53615698
    3        2.00000          6.08754014
    4        2.00000          6.08754014
    5        2.00000          6.08763144
    6        2.00000          6.08763144

---OUTPUT-----------------------------------------------------------------------

 Cartesian coordinates (xcart) [bohr]
  0.00000000000000E+00  4.28026876027495E-05  0.00000000000000E+00
  4.57349306129108E+00  2.94568966486040E+00  4.57349306129108E+00
  6.42078938011135E+00  2.50613800572828E-05  2.72619674247080E+00
  2.72619674247080E+00  2.50613800572828E-05  6.42078938011135E+00
  1.84729631882028E+00  2.94570740616794E+00  1.84729631882028E+00
  7.29968980376188E+00  2.94570740616794E+00  7.29968980376188E+00
 Reduced coordinates (xred)
  0.00000000000000E+00  7.26533275249606E-06  0.00000000000000E+00
  5.00000000000000E-01  5.00001677451315E-01  5.00000000000000E-01
  7.01956829721175E-01  4.25392132014701E-06  2.98043170278825E-01
  2.98043170278825E-01  4.25392132014701E-06  7.01956829721175E-01
  2.01956829721175E-01  5.00004688862747E-01  2.01956829721175E-01
  7.98043170278825E-01  5.00004688862747E-01  7.98043170278825E-01
 Cartesian forces (fcart) [Ha/bohr]; max,rms= 1.06883E-02 7.12551E-03 (free atoms)
 -2.89120579329468E-19  3.34465325797953E-06 -0.00000000000000E+00
 -2.89120579329468E-19 -3.34465325797953E-06 -0.00000000000000E+00
 -1.06882718873211E-02  1.88326617911751E-06  1.06882718873211E-02
  1.06882718873211E-02  1.88326617911751E-06 -1.06882718873211E-02
 -1.06882718873211E-02 -1.88326617911751E-06 -1.06882718873211E-02
  1.06882718873211E-02 -1.88326617911751E-06  1.06882718873211E-02
 Reduced forces (fred)
  2.64458192687956E-18 -1.97045549622807E-05 -0.00000000000000E+00
  2.64458192687956E-18  1.97045549622807E-05  0.00000000000000E+00
  9.77654746277108E-02 -1.10949982173765E-05 -9.77654746277108E-02
 -9.77654746277108E-02 -1.10949982173765E-05  9.77654746277108E-02
  9.77654746277108E-02  1.10949982173765E-05  9.77654746277108E-02
 -9.77654746277108E-02  1.10949982173765E-05 -9.77654746277108E-02
 Scale of Primitive Cell (acell) [bohr]
  9.14698612258215E+00  5.89135956478309E+00  9.14698612258215E+00
 Real space primitive translations (rprimd) [bohr]
  9.14698612258215E+00  0.00000000000000E+00  0.00000000000000E+00
  0.00000000000000E+00  5.89135956478309E+00  0.00000000000000E+00
  0.00000000000000E+00  0.00000000000000E+00  9.14698612258215E+00
 Unitary Cell Volume (ucvol) [Bohr^3]=  4.92914472885850E+02
 Angles (23,13,12)= [degrees]
  9.00000000000000E+01  9.00000000000000E+01  9.00000000000000E+01
 Lengths [Bohr]
  9.14698612258215E+00  5.89135956478309E+00  9.14698612258215E+00
 Stress tensor in cartesian coordinates (strten) [Ha/bohr^3]
 -4.27855223938678E-05  0.00000000000000E+00  0.00000000000000E+00
  0.00000000000000E+00  5.06048200770229E-06  0.00000000000000E+00
  0.00000000000000E+00  0.00000000000000E+00 -4.27855223938643E-05
 Total energy (etotal) [Ha]= -7.51857311283458E+01

 Difference of energy with previous step (new-old):
           Absolute (Ha)=-3.51146E-03
           Relative     =-4.67050E-05

--- Iteration: ( 7/30) Internal Cycle: (1/1)
--------------------------------------------------------------------------------

---SELF-CONSISTENT-FIELD CONVERGENCE--------------------------------------------

     iter   Etot(hartree)      deltaE(h)  residm     vres2
 ETOT  1  -75.154969529128    -7.515E+01 7.289E-04 1.533E+03
 ETOT  2  -75.051599441126     1.034E-01 1.842E-04 5.499E+03
 ETOT  3  -75.184618549238    -1.330E-01 1.471E-03 2.326E+01
 ETOT  4  -75.187334627839    -2.716E-03 7.533E-05 8.288E+00
 ETOT  5  -75.187321000167     1.363E-05 3.364E-05 2.132E+01
 ETOT  6  -75.187801710149    -4.807E-04 4.713E-06 6.156E-01
 ETOT  7  -75.187798304713     3.405E-06 5.301E-06 1.661E+00
 ETOT  8  -75.187812379115    -1.407E-05 9.474E-07 7.806E-01

 At SCF step    8, etot is converged : 
  for the second time, diff in etot=  1.407E-05 < toldfe=  1.000E-04

 Cartesian components of stress tensor (hartree/bohr^3)
  sigma(1 1)=  1.64585226E-05  sigma(3 2)=  0.00000000E+00
  sigma(2 2)=  2.71761196E-05  sigma(3 1)=  0.00000000E+00
  sigma(3 3)=  1.64585226E-05  sigma(2 1)=  0.00000000E+00

 Integrated electronic density in atomic spheres:
 ------------------------------------------------
 Atom  Sphere_radius  Integrated_density
    1        2.00000          1.52149636
    2        2.00000          1.51971702
    3        2.00000          6.08566929
    4        2.00000          6.08566929
    5        2.00000          6.08574566
    6        2.00000          6.08574566

---OUTPUT-----------------------------------------------------------------------

 Cartesian coordinates (xcart) [bohr]
  7.43216282449766E-18  3.41058321022355E-05 -8.59937440669306E-18
  4.59407557941027E+00  2.95895531675552E+00  4.59407557941027E+00
  6.41314711240020E+00  2.14720974560661E-05  2.77500404642032E+00
  2.77500404642032E+00  2.14720974560661E-05  6.41314711240020E+00
  1.81907153298995E+00  2.95896795049016E+00  1.81907153298995E+00
  7.36907962583060E+00  2.95896795049016E+00  7.36907962583060E+00
 Reduced coordinates (xred)
  8.08885563159555E-19  5.76319094689318E-06 -9.35919997184389E-19
  5.00000000000000E-01  5.00003179593120E-01  5.00000000000000E-01
  6.97980148731406E-01  3.62834711959709E-06  3.02019851268592E-01
  3.02019851268592E-01  3.62834711959709E-06  6.97980148731406E-01
  1.97980148731408E-01  5.00005314436947E-01  1.97980148731408E-01
  8.02019851268593E-01  5.00005314436947E-01  8.02019851268593E-01
 Cartesian forces (fcart) [Ha/bohr]; max,rms= 3.74019E-03 2.49346E-03 (free atoms)
 -0.00000000000000E+00  6.78794601429926E-06 -0.00000000000000E+00
 -0.00000000000000E+00 -6.78794601429926E-06  1.71712652868954E-31
 -3.74018768509004E-03  4.24060530079624E-06  3.74018768509004E-03
  3.74018768509004E-03  4.24060530079624E-06 -3.74018768509004E-03
 -3.74018768509004E-03 -4.24060530079624E-06 -3.74018768509004E-03
  3.74018768509004E-03 -4.24060530079624E-06  3.74018768509004E-03
 Reduced forces (fred)
 -0.00000000000000E+00 -4.01702024479219E-05 -0.00000000000000E+00
 -0.00000000000000E+00  4.01702024479219E-05 -1.57772181044202E-30
  3.43654098129663E-02 -2.50953636160144E-05 -3.43654098129663E-02
 -3.43654098129663E-02 -2.50953636160144E-05  3.43654098129663E-02
  3.43654098129663E-02  2.50953636160144E-05  3.43654098129663E-02
 -3.43654098129663E-02  2.50953636160144E-05 -3.43654098129663E-02
 Scale of Primitive Cell (acell) [bohr]
  9.18815115882053E+00  5.91787300065449E+00  9.18815115882053E+00
 Real space primitive translations (rprimd) [bohr]
  9.18815115882053E+00  0.00000000000000E+00  0.00000000000000E+00
  0.00000000000000E+00  5.91787300065449E+00  0.00000000000000E+00
  0.00000000000000E+00  0.00000000000000E+00  9.18815115882053E+00
 Unitary Cell Volume (ucvol) [Bohr^3]=  4.99599394768984E+02
 Angles (23,13,12)= [degrees]
  9.00000000000000E+01  9.00000000000000E+01  9.00000000000000E+01
 Lengths [Bohr]
  9.18815115882053E+00  5.91787300065449E+00  9.18815115882053E+00
 Stress tensor in cartesian coordinates (strten) [Ha/bohr^3]
  1.64585226264634E-05  0.00000000000000E+00  0.00000000000000E+00
  0.00000000000000E+00  2.71761196253620E-05  0.00000000000000E+00
  0.00000000000000E+00  0.00000000000000E+00  1.64585226264599E-05
 Total energy (etotal) [Ha]= -7.51878123791146E+01

 Difference of energy with previous step (new-old):
           Absolute (Ha)=-2.08125E-03
           Relative     =-2.76811E-05

--- Iteration: ( 8/30) Internal Cycle: (1/1)
--------------------------------------------------------------------------------

---SELF-CONSISTENT-FIELD CONVERGENCE--------------------------------------------

     iter   Etot(hartree)      deltaE(h)  residm     vres2
 ETOT  1  -75.183650552372    -7.518E+01 1.446E-04 2.530E+02
 ETOT  2  -75.171907017378     1.174E-02 2.947E-05 6.493E+02
 ETOT  3  -75.186818518835    -1.491E-02 2.065E-04 3.509E+01
 ETOT  4  -75.188028090539    -1.210E-03 7.153E-06 3.579E+00
 ETOT  5  -75.188109392088    -8.130E-05 3.985E-06 4.874E-01
 ETOT  6  -75.188122206718    -1.281E-05 8.358E-07 3.942E-02

 At SCF step    6, etot is converged : 
  for the second time, diff in etot=  1.281E-05 < toldfe=  1.000E-04

 Cartesian components of stress tensor (hartree/bohr^3)
  sigma(1 1)=  2.15748578E-05  sigma(3 2)=  0.00000000E+00
  sigma(2 2)=  2.29589178E-05  sigma(3 1)=  0.00000000E+00
  sigma(3 3)=  2.15748578E-05  sigma(2 1)=  0.00000000E+00

 Integrated electronic density in atomic spheres:
 ------------------------------------------------
 Atom  Sphere_radius  Integrated_density
    1        2.00000          1.52662378
    2        2.00000          1.52606961
    3        2.00000          6.08389520
    4        2.00000          6.08389520
    5        2.00000          6.08276856
    6        2.00000          6.08276856

---OUTPUT-----------------------------------------------------------------------

 Cartesian coordinates (xcart) [bohr]
  0.00000000000000E+00  3.84783171893767E-05  0.00000000000000E+00
  4.59676756053862E+00  2.96068481728731E+00  4.59676756053862E+00
  6.40045238063069E+00  2.56680796092541E-05  2.79308274044655E+00
  2.79308274044655E+00  2.56680796092541E-05  6.40045238063069E+00
  1.80368482009207E+00  2.96069762752489E+00  1.80368482009207E+00
  7.38985030098517E+00  2.96069762752489E+00  7.38985030098517E+00
 Reduced coordinates (xred)
  0.00000000000000E+00  6.49824410357201E-06  0.00000000000000E+00
  5.00000000000000E-01  5.00002444539964E-01  5.00000000000000E-01
  6.96190561773884E-01  4.33484255951046E-06  3.03809438226116E-01
  3.03809438226116E-01  4.33484255951046E-06  6.96190561773884E-01
  1.96190561773884E-01  5.00004607941508E-01  1.96190561773884E-01
  8.03809438226116E-01  5.00004607941508E-01  8.03809438226116E-01
 Cartesian forces (fcart) [Ha/bohr]; max,rms= 8.46312E-04 5.64209E-04 (free atoms)
  3.61400724161835E-20 -1.93753671714475E-06 -0.00000000000000E+00
  3.61400724161835E-20  1.93753671714475E-06 -0.00000000000000E+00
 -8.46312467033601E-04  6.73305541136211E-08  8.46312467033601E-04
  8.46312467033601E-04  6.73305541136211E-08 -8.46312467033601E-04
 -8.46312467033601E-04 -6.73305541136211E-08 -8.46312467033601E-04
  8.46312467033601E-04 -6.73305541136211E-08  8.46312467033601E-04
 Reduced forces (fred)
 -3.32255025036458E-19  1.14728149912648E-05 -0.00000000000000E+00
 -3.32255025036458E-19 -1.14728149912648E-05 -0.00000000000000E+00
  7.78060338907894E-03 -3.98687149394140E-07 -7.78060338907894E-03
 -7.78060338907894E-03 -3.98687149394140E-07  7.78060338907894E-03
  7.78060338907894E-03  3.98687149394140E-07  7.78060338907894E-03
 -7.78060338907894E-03  3.98687149394140E-07 -7.78060338907894E-03
 Scale of Primitive Cell (acell) [bohr]
  9.19353512107724E+00  5.92134068466673E+00  9.19353512107724E+00
 Real space primitive translations (rprimd) [bohr]
  9.19353512107724E+00  0.00000000000000E+00  0.00000000000000E+00
  0.00000000000000E+00  5.92134068466673E+00  0.00000000000000E+00
  0.00000000000000E+00  0.00000000000000E+00  9.19353512107724E+00
 Unitary Cell Volume (ucvol) [Bohr^3]=  5.00478157219813E+02
 Angles (23,13,12)= [degrees]
  9.00000000000000E+01  9.00000000000000E+01  9.00000000000000E+01
 Lengths [Bohr]
  9.19353512107724E+00  5.92134068466673E+00  9.19353512107724E+00
 Stress tensor in cartesian coordinates (strten) [Ha/bohr^3]
  2.15748578198671E-05  0.00000000000000E+00  0.00000000000000E+00
  0.00000000000000E+00  2.29589178192859E-05  0.00000000000000E+00
  0.00000000000000E+00  0.00000000000000E+00  2.15748578198706E-05
 Total energy (etotal) [Ha]= -7.51881222067178E+01

 Difference of energy with previous step (new-old):
           Absolute (Ha)=-3.09828E-04
           Relative     =-4.12071E-06

--- Iteration: ( 9/30) Internal Cycle: (1/1)
--------------------------------------------------------------------------------

---SELF-CONSISTENT-FIELD CONVERGENCE--------------------------------------------

     iter   Etot(hartree)      deltaE(h)  residm     vres2
 ETOT  1  -75.187723384817    -7.519E+01 5.540E+03 1.909E+01
 ETOT  2  -75.185765991311     1.957E-03 1.489E+01 9.560E+01
 ETOT  3  -75.188129960315    -2.364E-03 2.978E-01 2.733E-01
 ETOT  4  -75.188161252597    -3.129E-05 8.176E-01 1.041E-01
 ETOT  5  -75.188161482109    -2.295E-07 2.634E-01 1.611E-01

 At SCF step    5, etot is converged : 
  for the second time, diff in etot=  2.295E-07 < toldfe=  1.000E-04

 Cartesian components of stress tensor (hartree/bohr^3)
  sigma(1 1)=  1.07019464E-05  sigma(3 2)=  0.00000000E+00
  sigma(2 2)=  2.34139891E-06  sigma(3 1)=  0.00000000E+00
  sigma(3 3)=  1.07019464E-05  sigma(2 1)=  0.00000000E+00

 Integrated electronic density in atomic spheres:
 ------------------------------------------------
 Atom  Sphere_radius  Integrated_density
    1        2.00000          1.52669162
    2        2.00000          1.52554536
    3        2.00000          6.08689437
    4        2.00000          6.08689437
    5        2.00000          6.08482580
    6        2.00000          6.08482580

---OUTPUT-----------------------------------------------------------------------

 Cartesian coordinates (xcart) [bohr]
 -2.54697901945959E-18  3.48671371028557E-05  3.01646424375180E-18
  4.59362872378078E+00  2.95866674105605E+00  4.59362872378078E+00
  6.39206073904135E+00  2.58456600233799E-05  2.79519670852022E+00
  2.79519670852022E+00  2.58456600233799E-05  6.39206073904135E+00
  1.79843201526056E+00  2.95867576253313E+00  1.79843201526056E+00
  7.38882543230101E+00  2.95867576253313E+00  7.38882543230101E+00
 Reduced coordinates (xred)
 -2.77229525132726E-19  5.89240912717546E-06  3.28331306809348E-19
  5.00000000000000E-01  5.00003050374940E-01  5.00000000000000E-01
  6.95752870269015E-01  4.36781495912277E-06  3.04247129730985E-01
  3.04247129730985E-01  4.36781495912277E-06  6.95752870269015E-01
  1.95752870269015E-01  5.00004574969109E-01  1.95752870269015E-01
  8.04247129730985E-01  5.00004574969109E-01  8.04247129730985E-01
 Cartesian forces (fcart) [Ha/bohr]; max,rms= 1.61483E-05 7.58945E-06 (free atoms)
 -0.00000000000000E+00 -1.61483119199750E-05 -0.00000000000000E+00
 -0.00000000000000E+00  1.61483119199750E-05 -0.00000000000000E+00
 -8.01209193305412E-06 -6.53723128864481E-07  8.01209193305412E-06
  8.01209193305412E-06 -6.53723128864481E-07 -8.01209193305412E-06
 -8.01209193305412E-06  6.53723128864481E-07 -8.01209193305412E-06
  8.01209193305412E-06  6.53723128864481E-07  8.01209193305412E-06
 Reduced forces (fred)
  0.00000000000000E+00  9.55543638503844E-05  0.00000000000000E+00
 -0.00000000000000E+00 -9.55543638503844E-05 -0.00000000000000E+00
  7.36091512824994E-05  3.86827415908776E-06 -7.36091512824994E-05
 -7.36091512824994E-05  3.86827415908776E-06  7.36091512824994E-05
  7.36091512824994E-05 -3.86827415908776E-06  7.36091512824994E-05
 -7.36091512824994E-05 -3.86827415908776E-06 -7.36091512824994E-05
 Scale of Primitive Cell (acell) [bohr]
  9.18725744756157E+00  5.91729738216080E+00  9.18725744756157E+00
 Real space primitive translations (rprimd) [bohr]
  9.18725744756157E+00  0.00000000000000E+00  0.00000000000000E+00
  0.00000000000000E+00  5.91729738216080E+00  0.00000000000000E+00
  0.00000000000000E+00  0.00000000000000E+00  9.18725744756157E+00
 Unitary Cell Volume (ucvol) [Bohr^3]=  4.99453624145082E+02
 Angles (23,13,12)= [degrees]
  9.00000000000000E+01  9.00000000000000E+01  9.00000000000000E+01
 Lengths [Bohr]
  9.18725744756157E+00  5.91729738216080E+00  9.18725744756157E+00
 Stress tensor in cartesian coordinates (strten) [Ha/bohr^3]
  1.07019463686658E-05  0.00000000000000E+00  0.00000000000000E+00
  0.00000000000000E+00  2.34139890617144E-06  0.00000000000000E+00
  0.00000000000000E+00  0.00000000000000E+00  1.07019463686658E-05
 Total energy (etotal) [Ha]= -7.51881614821092E+01

 Difference of energy with previous step (new-old):
           Absolute (Ha)=-3.92754E-05
           Relative     =-5.22362E-07

--- Iteration: (10/30) Internal Cycle: (1/1)
--------------------------------------------------------------------------------

---SELF-CONSISTENT-FIELD CONVERGENCE--------------------------------------------

     iter   Etot(hartree)      deltaE(h)  residm     vres2
 ETOT  1  -75.188152585744    -7.519E+01 5.858E-05 8.372E-01
 ETOT  2  -75.188055033097     9.755E-05 2.555E-04 4.601E+00
 ETOT  3  -75.188171456373    -1.164E-04 1.618E-04 1.724E-02
 ETOT  4  -75.188172821455    -1.365E-06 1.148E-05 6.021E-03
 ETOT  5  -75.188172644321     1.771E-07 7.279E-05 1.127E-02

 At SCF step    5, etot is converged : 
  for the second time, diff in etot=  1.771E-07 < toldfe=  1.000E-04

 Cartesian components of stress tensor (hartree/bohr^3)
  sigma(1 1)=  8.09141607E-06  sigma(3 2)=  0.00000000E+00
  sigma(2 2)= -1.84927588E-06  sigma(3 1)=  0.00000000E+00
  sigma(3 3)=  8.09141607E-06  sigma(2 1)=  0.00000000E+00

 Integrated electronic density in atomic spheres:
 ------------------------------------------------
 Atom  Sphere_radius  Integrated_density
    1        2.00000          1.52897252
    2        2.00000          1.52736130
    3        2.00000          6.08692026
    4        2.00000          6.08692026
    5        2.00000          6.08514485
    6        2.00000          6.08514485

---OUTPUT-----------------------------------------------------------------------

 Cartesian coordinates (xcart) [bohr]
 -2.91828500018747E-18  1.28318732068810E-05  3.44325001621832E-18
  4.59178418201299E+00  2.95750072891279E+00  4.59178418201299E+00
  6.38952168035960E+00  2.50726682329105E-05  2.79404668366638E+00
  2.79404668366638E+00  2.50726682329105E-05  6.38952168035960E+00
  1.79773749834661E+00  2.95748848811776E+00  1.79773749834661E+00
  7.38583086567938E+00  2.95748848811776E+00  7.38583086567938E+00
 Reduced coordinates (xred)
 -3.17772447975563E-19  2.16940724843426E-06  3.74935959502002E-19
  5.00000000000000E-01  5.00006773376819E-01  5.00000000000000E-01
  6.95755879096924E-01  4.23888448125374E-06  3.04244120903076E-01
  3.04244120903076E-01  4.23888448125374E-06  6.95755879096924E-01
  1.95755879096924E-01  5.00004703899586E-01  1.95755879096924E-01
  8.04244120903076E-01  5.00004703899586E-01  8.04244120903076E-01
 Cartesian forces (fcart) [Ha/bohr]; max,rms= 1.06911E-04 7.13037E-05 (free atoms)
 -0.00000000000000E+00  5.39149081131735E-06 -4.51750905202293E-21
 -0.00000000000000E+00 -5.39149081131735E-06 -4.51750905202293E-21
  1.06911234438041E-04  2.10900805150001E-06 -1.06911234438041E-04
 -1.06911234438041E-04  2.10900805150001E-06  1.06911234438041E-04
  1.06911234438041E-04 -2.10900805150001E-06  1.06911234438041E-04
 -1.06911234438041E-04 -2.10900805150001E-06 -1.06911234438041E-04
 Reduced forces (fred)
 -0.00000000000000E+00 -3.18902439995164E-05  4.14868532143589E-20
  0.00000000000000E+00  3.18902439995164E-05  4.14868532143589E-20
 -9.81826630344158E-04 -1.24746167086292E-05  9.81826630344158E-04
  9.81826630344158E-04 -1.24746167086292E-05 -9.81826630344158E-04
 -9.81826630344158E-04  1.24746167086292E-05 -9.81826630344158E-04
  9.81826630344158E-04  1.24746167086292E-05  9.81826630344158E-04
 Scale of Primitive Cell (acell) [bohr]
  9.18356836402599E+00  5.91492132984353E+00  9.18356836402599E+00
 Real space primitive translations (rprimd) [bohr]
  9.18356836402599E+00  0.00000000000000E+00  0.00000000000000E+00
  0.00000000000000E+00  5.91492132984353E+00  0.00000000000000E+00
  0.00000000000000E+00  0.00000000000000E+00  9.18356836402599E+00
 Unitary Cell Volume (ucvol) [Bohr^3]=  4.98852208631227E+02
 Angles (23,13,12)= [degrees]
  9.00000000000000E+01  9.00000000000000E+01  9.00000000000000E+01
 Lengths [Bohr]
  9.18356836402599E+00  5.91492132984353E+00  9.18356836402599E+00
 Stress tensor in cartesian coordinates (strten) [Ha/bohr^3]
  8.09141606782429E-06  0.00000000000000E+00  0.00000000000000E+00
  0.00000000000000E+00 -1.84927587607020E-06  0.00000000000000E+00
  0.00000000000000E+00  0.00000000000000E+00  8.09141606782082E-06
 Total energy (etotal) [Ha]= -7.51881726443206E+01

 Difference of energy with previous step (new-old):
           Absolute (Ha)=-1.11622E-05
           Relative     =-1.48457E-07

--- Iteration: (11/30) Internal Cycle: (1/1)
--------------------------------------------------------------------------------

---SELF-CONSISTENT-FIELD CONVERGENCE--------------------------------------------

     iter   Etot(hartree)      deltaE(h)  residm     vres2
 ETOT  1  -75.187524675146    -7.519E+01 6.696E-03 2.352E+01
 ETOT  2  -75.183093303275     4.431E-03 8.908E-04 2.003E+02
 ETOT  3  -75.188091906116    -4.999E-03 4.187E-04 1.278E+00
 ETOT  4  -75.188156949122    -6.504E-05 1.619E-04 2.664E-01
 ETOT  5  -75.188161138986    -4.190E-06 1.006E-05 5.492E-01

 At SCF step    5, etot is converged : 
  for the second time, diff in etot=  4.190E-06 < toldfe=  1.000E-04

 Cartesian components of stress tensor (hartree/bohr^3)
  sigma(1 1)= -1.88332150E-05  sigma(3 2)=  0.00000000E+00
  sigma(2 2)= -3.34483891E-05  sigma(3 1)=  0.00000000E+00
  sigma(3 3)= -1.88332150E-05  sigma(2 1)=  0.00000000E+00

 Integrated electronic density in atomic spheres:
 ------------------------------------------------
 Atom  Sphere_radius  Integrated_density
    1        2.00000          1.52778166
    2        2.00000          1.52578038
    3        2.00000          6.09059781
    4        2.00000          6.09059781
    5        2.00000          6.08788289
    6        2.00000          6.08788289

---OUTPUT-----------------------------------------------------------------------

 Cartesian coordinates (xcart) [bohr]
 -3.05540889638183E-18  1.24335633424205E-05  3.56916453188902E-18
  4.58772031466240E+00  2.95488363861208E+00  4.58772031466240E+00
  6.38533074198121E+00  3.07221502314361E-05  2.79010988734359E+00
  2.79010988734359E+00  3.07221502314361E-05  6.38533074198121E+00
  1.79761042731881E+00  2.95486535002519E+00  1.79761042731881E+00
  7.37783020200598E+00  2.95486535002519E+00  7.37783020200598E+00
 Reduced coordinates (xred)
 -3.32998601355091E-19  2.10392944795026E-06  3.88991076949693E-19
  5.00000000000000E-01  5.00006838854620E-01  5.00000000000000E-01
  6.95915433376969E-01  5.19860918355904E-06  3.04084566623032E-01
  3.04084566623032E-01  5.19860918355904E-06  6.95915433376969E-01
  1.95915433376968E-01  5.00003744174883E-01  1.95915433376968E-01
  8.04084566623031E-01  5.00003744174883E-01  8.04084566623031E-01
 Cartesian forces (fcart) [Ha/bohr]; max,rms= 3.10306E-04 2.06872E-04 (free atoms)
 -1.71950522506746E-31  2.01024341703222E-06 -9.03501810421782E-21
 -0.00000000000000E+00 -2.01024341703222E-06 -9.03501810404587E-21
  3.10306475982560E-04  3.74661961253460E-08 -3.10306475982560E-04
 -3.10306475982560E-04  3.74661961253460E-08  3.10306475982560E-04
  3.10306475982560E-04 -3.74661961253460E-08  3.10306475982560E-04
 -3.10306475982560E-04 -3.74661961253460E-08 -3.10306475982560E-04
 Reduced forces (fred)
  1.57772181044202E-30 -1.18799082753011E-05  8.29002722001252E-20
  0.00000000000000E+00  1.18799082753011E-05  8.29002721985475E-20
 -2.84719864727298E-03 -2.21413471434548E-07  2.84719864727298E-03
  2.84719864727298E-03 -2.21413471434548E-07 -2.84719864727298E-03
 -2.84719864727298E-03  2.21413471434548E-07 -2.84719864727298E-03
  2.84719864727298E-03  2.21413471434548E-07  2.84719864727298E-03
 Scale of Primitive Cell (acell) [bohr]
  9.17544062932479E+00  5.90968644625125E+00  9.17544062932479E+00
 Real space primitive translations (rprimd) [bohr]
  9.17544062932479E+00  0.00000000000000E+00  0.00000000000000E+00
  0.00000000000000E+00  5.90968644625125E+00  0.00000000000000E+00
  0.00000000000000E+00  0.00000000000000E+00  9.17544062932479E+00
 Unitary Cell Volume (ucvol) [Bohr^3]=  4.97528882800925E+02
 Angles (23,13,12)= [degrees]
  9.00000000000000E+01  9.00000000000000E+01  9.00000000000000E+01
 Lengths [Bohr]
  9.17544062932479E+00  5.90968644625125E+00  9.17544062932479E+00
 Stress tensor in cartesian coordinates (strten) [Ha/bohr^3]
 -1.88332149819309E-05  0.00000000000000E+00  0.00000000000000E+00
  0.00000000000000E+00 -3.34483891381854E-05  0.00000000000000E+00
  0.00000000000000E+00  0.00000000000000E+00 -1.88332149819309E-05
 Total energy (etotal) [Ha]= -7.51881611389862E+01

 Difference of energy with previous step (new-old):
           Absolute (Ha)= 1.15053E-05
           Relative     = 1.53021E-07

--- Iteration: (12/30) Internal Cycle: (1/1)
--------------------------------------------------------------------------------

---SELF-CONSISTENT-FIELD CONVERGENCE--------------------------------------------

     iter   Etot(hartree)      deltaE(h)  residm     vres2
 ETOT  1  -75.187084002980    -7.519E+01 4.559E-06 4.070E+01
 ETOT  2  -75.180136980600     6.947E-03 9.587E-06 3.177E+02
 ETOT  3  -75.187998958824    -7.862E-03 5.770E-05 3.302E+00
 ETOT  4  -75.188120573549    -1.216E-04 4.262E-06 9.754E-01
 ETOT  5  -75.188133959348    -1.339E-05 1.492E-06 1.605E+00
 ETOT  6  -75.188163658126    -2.970E-05 3.367E-07 5.108E-01

 At SCF step    6, etot is converged : 
  for the second time, diff in etot=  2.970E-05 < toldfe=  1.000E-04

 Cartesian components of stress tensor (hartree/bohr^3)
  sigma(1 1)=  9.56951946E-06  sigma(3 2)=  0.00000000E+00
  sigma(2 2)=  4.07288840E-06  sigma(3 1)=  0.00000000E+00
  sigma(3 3)=  9.56951946E-06  sigma(2 1)=  0.00000000E+00

 Integrated electronic density in atomic spheres:
 ------------------------------------------------
 Atom  Sphere_radius  Integrated_density
    1        2.00000          1.53424132
    2        2.00000          1.53197998
    3        2.00000          6.08495879
    4        2.00000          6.08495879
    5        2.00000          6.08284334
    6        2.00000          6.08284334

---OUTPUT-----------------------------------------------------------------------

 Cartesian coordinates (xcart) [bohr]
 -2.65422887115758E-18  1.35598931271980E-05  3.11945048907851E-18
  4.59081343451809E+00  2.95687475398089E+00  4.59081343451809E+00
  6.38913341443909E+00  2.76554921197374E-05  2.79249345459708E+00
  2.79249345459708E+00  2.76554921197374E-05  6.38913341443909E+00
  1.79831997992100E+00  2.95686065838189E+00  1.79831997992100E+00
  7.38330688911517E+00  2.95686065838189E+00  7.38330688911517E+00
 Reduced coordinates (xred)
 -2.89080454805741E-19  2.29297393309801E-06  3.39749211503949E-19
  5.00000000000000E-01  5.00006649810135E-01  5.00000000000000E-01
  6.95860712439274E-01  4.67653557020760E-06  3.04139287560726E-01
  3.04139287560726E-01  4.67653557020760E-06  6.95860712439274E-01
  1.95860712439274E-01  5.00004266248497E-01  1.95860712439274E-01
  8.04139287560726E-01  5.00004266248497E-01  8.04139287560726E-01
 Cartesian forces (fcart) [Ha/bohr]; max,rms= 3.33089E-04 2.22108E-04 (free atoms)
 -0.00000000000000E+00  1.23509810826790E-05 -0.00000000000000E+00
 -0.00000000000000E+00 -1.23509810826790E-05 -0.00000000000000E+00
 -3.33088686723222E-04  4.52687891366640E-06  3.33088686723222E-04
  3.33088686723222E-04  4.52687891366640E-06 -3.33088686723222E-04
 -3.33088686723222E-04 -4.52687891366640E-06 -3.33088686723222E-04
  3.33088686723222E-04 -4.52687891366640E-06  3.33088686723222E-04
 Reduced forces (fred)
 -0.00000000000000E+00 -7.30396369011026E-05 -0.00000000000000E+00
  0.00000000000000E+00  7.30396369011026E-05  0.00000000000000E+00
  3.05829603578991E-03 -2.67704719111864E-05 -3.05829603578991E-03
 -3.05829603578991E-03 -2.67704719111864E-05  3.05829603578991E-03
  3.05829603578991E-03  2.67704719111864E-05  3.05829603578991E-03
 -3.05829603578991E-03  2.67704719111864E-05 -3.05829603578991E-03
 Scale of Primitive Cell (acell) [bohr]
  9.18162686903617E+00  5.91367085838496E+00  9.18162686903617E+00
 Real space primitive translations (rprimd) [bohr]
  9.18162686903617E+00  0.00000000000000E+00  0.00000000000000E+00
  0.00000000000000E+00  5.91367085838496E+00  0.00000000000000E+00
  0.00000000000000E+00  0.00000000000000E+00  9.18162686903617E+00
 Unitary Cell Volume (ucvol) [Bohr^3]=  4.98535888998547E+02
 Angles (23,13,12)= [degrees]
  9.00000000000000E+01  9.00000000000000E+01  9.00000000000000E+01
 Lengths [Bohr]
  9.18162686903617E+00  5.91367085838496E+00  9.18162686903617E+00
 Stress tensor in cartesian coordinates (strten) [Ha/bohr^3]
  9.56951945832799E-06  0.00000000000000E+00  0.00000000000000E+00
  0.00000000000000E+00  4.07288839764791E-06  0.00000000000000E+00
  0.00000000000000E+00  0.00000000000000E+00  9.56951945833492E-06
 Total energy (etotal) [Ha]= -7.51881636581262E+01

 Difference of energy with previous step (new-old):
           Absolute (Ha)=-2.51914E-06
           Relative     =-3.35045E-08

--- Iteration: (13/30) Internal Cycle: (1/1)
--------------------------------------------------------------------------------

---SELF-CONSISTENT-FIELD CONVERGENCE--------------------------------------------

     iter   Etot(hartree)      deltaE(h)  residm     vres2
 ETOT  1  -75.187978544858    -7.519E+01 3.715E-06 8.087E+00
 ETOT  2  -75.186612619238     1.366E-03 3.529E-06 6.161E+01
 ETOT  3  -75.188152401831    -1.540E-03 1.064E-05 2.018E-01
 ETOT  4  -75.188170124165    -1.772E-05 5.852E-06 6.923E-02
 ETOT  5  -75.188170748588    -6.244E-07 3.859E-07 1.862E-01

 At SCF step    5, etot is converged : 
  for the second time, diff in etot=  6.244E-07 < toldfe=  1.000E-04

 Cartesian components of stress tensor (hartree/bohr^3)
  sigma(1 1)= -3.67476622E-06  sigma(3 2)=  0.00000000E+00
  sigma(2 2)= -1.58746539E-05  sigma(3 1)=  0.00000000E+00
  sigma(3 3)= -3.67476622E-06  sigma(2 1)=  0.00000000E+00

 Integrated electronic density in atomic spheres:
 ------------------------------------------------
 Atom  Sphere_radius  Integrated_density
    1        2.00000          1.52801239
    2        2.00000          1.52575308
    3        2.00000          6.08830858
    4        2.00000          6.08830858
    5        2.00000          6.08620782
    6        2.00000          6.08620782

---OUTPUT-----------------------------------------------------------------------

 Cartesian coordinates (xcart) [bohr]
 -3.10051220818030E-18  3.04878683168445E-05  3.63031756273745E-18
  4.59056144559882E+00  2.95669552294084E+00  4.59056144559882E+00
  6.38797012843262E+00  3.26404106824555E-05  2.79315276276501E+00
  2.79315276276501E+00  3.26404106824555E-05  6.38797012843262E+00
  1.79740868283380E+00  2.95669337039847E+00  1.79740868283380E+00
  7.38371420836382E+00  2.95669337039847E+00  7.38371420836382E+00
 Reduced coordinates (xred)
 -3.37705120051590E-19  5.15577255015033E-06  3.95411063086630E-19
  5.00000000000000E-01  5.00003787011518E-01  5.00000000000000E-01
  6.95772206094427E-01  5.51978681071839E-06  3.04227793905573E-01
  3.04227793905573E-01  5.51978681071839E-06  6.95772206094427E-01
  1.95772206094427E-01  5.00003422997257E-01  1.95772206094427E-01
  8.04227793905573E-01  5.00003422997257E-01  8.04227793905573E-01
 Cartesian forces (fcart) [Ha/bohr]; max,rms= 2.40128E-04 1.62034E-04 (free atoms)
  9.03501810404587E-21  7.51295485916169E-05 -0.00000000000000E+00
  9.03501810404587E-21 -7.51295485916169E-05 -0.00000000000000E+00
  2.40127930242523E-04  1.52671333176840E-06 -2.40127930242523E-04
 -2.40127930242523E-04  1.52671333176840E-06  2.40127930242523E-04
  2.40127930242523E-04 -1.52671333176840E-06  2.40127930242523E-04
 -2.40127930242523E-04 -1.52671333176840E-06 -2.40127930242523E-04
 Reduced forces (fred)
 -8.29516115374406E-20 -4.44267035034043E-04 -0.00000000000000E+00
 -8.29516115374406E-20  4.44267035034043E-04 -0.00000000000000E+00
 -2.20464403716554E-03 -9.02798456754435E-06  2.20464403716554E-03
  2.20464403716554E-03 -9.02798456754435E-06 -2.20464403716554E-03
 -2.20464403716554E-03  9.02798456754435E-06 -2.20464403716554E-03
  2.20464403716554E-03  9.02798456754435E-06  2.20464403716554E-03
 Scale of Primitive Cell (acell) [bohr]
  9.18112289119763E+00  5.91334625806090E+00  9.18112289119763E+00
 Real space primitive translations (rprimd) [bohr]
  9.18112289119763E+00  0.00000000000000E+00  0.00000000000000E+00
  0.00000000000000E+00  5.91334625806090E+00  0.00000000000000E+00
  0.00000000000000E+00  0.00000000000000E+00  9.18112289119763E+00
 Unitary Cell Volume (ucvol) [Bohr^3]=  4.98453799870176E+02
 Angles (23,13,12)= [degrees]
  9.00000000000000E+01  9.00000000000000E+01  9.00000000000000E+01
 Lengths [Bohr]
  9.18112289119763E+00  5.91334625806090E+00  9.18112289119763E+00
 Stress tensor in cartesian coordinates (strten) [Ha/bohr^3]
 -3.67476621729659E-06  0.00000000000000E+00  0.00000000000000E+00
  0.00000000000000E+00 -1.58746539283688E-05  0.00000000000000E+00
  0.00000000000000E+00  0.00000000000000E+00 -3.67476621729659E-06
 Total energy (etotal) [Ha]= -7.51881707485883E+01

 Difference of energy with previous step (new-old):
           Absolute (Ha)=-7.09046E-06
           Relative     =-9.43029E-08

--- Iteration: (14/30) Internal Cycle: (1/1)
--------------------------------------------------------------------------------

---SELF-CONSISTENT-FIELD CONVERGENCE--------------------------------------------

     iter   Etot(hartree)      deltaE(h)  residm     vres2
 ETOT  1  -75.188076036923    -7.519E+01 8.537E-07 3.881E+00
 ETOT  2  -75.187408317850     6.677E-04 8.146E-07 3.023E+01
 ETOT  3  -75.188161186534    -7.529E-04 5.644E-06 2.008E-01
 ETOT  4  -75.188170644982    -9.458E-06 1.211E-06 1.065E-01
 ETOT  5  -75.188172986172    -2.341E-06 2.818E-07 6.396E-02

 At SCF step    5, etot is converged : 
  for the second time, diff in etot=  2.341E-06 < toldfe=  1.000E-04

 Cartesian components of stress tensor (hartree/bohr^3)
  sigma(1 1)=  1.78049129E-05  sigma(3 2)=  0.00000000E+00
  sigma(2 2)=  7.27784555E-06  sigma(3 1)=  0.00000000E+00
  sigma(3 3)=  1.78049129E-05  sigma(2 1)=  0.00000000E+00

 Integrated electronic density in atomic spheres:
 ------------------------------------------------
 Atom  Sphere_radius  Integrated_density
    1        2.00000          1.53118826
    2        2.00000          1.52892699
    3        2.00000          6.08579617
    4        2.00000          6.08579617
    5        2.00000          6.08380004
    6        2.00000          6.08380004

---OUTPUT-----------------------------------------------------------------------

 Cartesian coordinates (xcart) [bohr]
 -2.95666057445722E-18  7.81339995813311E-05  3.47987396601530E-18
  4.59084803425833E+00  2.95683246515547E+00  4.59084803425833E+00
  6.38852073134154E+00  3.39014797053177E-05  2.79317533717512E+00
  2.79317533717512E+00  3.39014797053177E-05  6.38852073134154E+00
  1.79767269708321E+00  2.95687669767535E+00  1.79767269708321E+00
  7.38402337143345E+00  2.95687669767535E+00  7.38402337143345E+00
 Reduced coordinates (xred)
 -3.22016820464727E-19  1.32123367332499E-05  3.79001215031232E-19
  5.00000000000000E-01  4.99995730447335E-01  5.00000000000000E-01
  6.95788739212061E-01  5.73268702513875E-06  3.04211260787939E-01
  3.04211260787939E-01  5.73268702513875E-06  6.95788739212061E-01
  1.95788739212061E-01  5.00003210097043E-01  1.95788739212061E-01
  8.04211260787939E-01  5.00003210097043E-01  8.04211260787939E-01
 Cartesian forces (fcart) [Ha/bohr]; max,rms= 1.63931E-05 1.21221E-05 (free atoms)
 -0.00000000000000E+00  1.30166957405766E-05 -0.00000000000000E+00
 -0.00000000000000E+00 -1.30166957405766E-05 -0.00000000000000E+00
 -1.63931045705537E-05 -6.25024375792552E-06  1.63931045705537E-05
  1.63931045705537E-05 -6.25024375792552E-06 -1.63931045705537E-05
 -1.63931045705537E-05  6.25024375792552E-06 -1.63931045705537E-05
  1.63931045705537E-05  6.25024375792552E-06  1.63931045705537E-05
 Reduced forces (fred)
 -0.00000000000000E+00 -7.69770344245808E-05 -0.00000000000000E+00
  0.00000000000000E+00  7.69770344245808E-05  0.00000000000000E+00
  1.50516503786235E-04  3.69621629409417E-05 -1.50516503786235E-04
 -1.50516503786235E-04  3.69621629409417E-05  1.50516503786235E-04
  1.50516503786235E-04 -3.69621629409417E-05  1.50516503786235E-04
 -1.50516503786235E-04 -3.69621629409417E-05 -1.50516503786235E-04
 Scale of Primitive Cell (acell) [bohr]
  9.18169606851666E+00  5.91371542814988E+00  9.18169606851666E+00
 Real space primitive translations (rprimd) [bohr]
  9.18169606851666E+00  0.00000000000000E+00  0.00000000000000E+00
  0.00000000000000E+00  5.91371542814988E+00  0.00000000000000E+00
  0.00000000000000E+00  0.00000000000000E+00  9.18169606851666E+00
 Unitary Cell Volume (ucvol) [Bohr^3]=  4.98547161080833E+02
 Angles (23,13,12)= [degrees]
  9.00000000000000E+01  9.00000000000000E+01  9.00000000000000E+01
 Lengths [Bohr]
  9.18169606851666E+00  5.91371542814988E+00  9.18169606851666E+00
 Stress tensor in cartesian coordinates (strten) [Ha/bohr^3]
  1.78049129378986E-05  0.00000000000000E+00  0.00000000000000E+00
  0.00000000000000E+00  7.27784555372424E-06  0.00000000000000E+00
  0.00000000000000E+00  0.00000000000000E+00  1.78049129378952E-05
 Total energy (etotal) [Ha]= -7.51881729861721E+01

 Difference of energy with previous step (new-old):
           Absolute (Ha)=-2.23758E-06
           Relative     =-2.97598E-08

--- Iteration: (15/30) Internal Cycle: (1/1)
--------------------------------------------------------------------------------

---SELF-CONSISTENT-FIELD CONVERGENCE--------------------------------------------

     iter   Etot(hartree)      deltaE(h)  residm     vres2
 ETOT  1  -75.188064172201    -7.519E+01 5.864E-06 4.642E+00
 ETOT  2  -75.187356771986     7.074E-04 1.257E-06 3.223E+01
 ETOT  3  -75.188163731409    -8.070E-04 5.657E-06 9.275E-02
 ETOT  4  -75.188172561446    -8.830E-06 7.342E-07 4.227E-02
 ETOT  5  -75.188173184434    -6.230E-07 1.032E-07 9.641E-02

 At SCF step    5, etot is converged : 
  for the second time, diff in etot=  6.230E-07 < toldfe=  1.000E-04

 Cartesian components of stress tensor (hartree/bohr^3)
  sigma(1 1)=  2.82838359E-07  sigma(3 2)=  0.00000000E+00
  sigma(2 2)= -1.05278827E-05  sigma(3 1)=  0.00000000E+00
  sigma(3 3)=  2.82838359E-07  sigma(2 1)=  0.00000000E+00

 Integrated electronic density in atomic spheres:
 ------------------------------------------------
 Atom  Sphere_radius  Integrated_density
    1        2.00000          1.52845323
    2        2.00000          1.52633647
    3        2.00000          6.08771347
    4        2.00000          6.08771347
    5        2.00000          6.08562554
    6        2.00000          6.08562554

---OUTPUT-----------------------------------------------------------------------

 Cartesian coordinates (xcart) [bohr]
 -2.52341374028508E-18  1.47587390821877E-04  2.99522402798549E-18
  4.59037025068210E+00  2.95645527704722E+00  4.59037025068210E+00
  6.38892243246324E+00  3.15220267641939E-05  2.79181806890095E+00
  2.79181806890095E+00  3.15220267641939E-05  6.38892243246324E+00
  1.79855218178114E+00  2.95657134241128E+00  1.79855218178114E+00
  7.38218831958306E+00  2.95657134241128E+00  7.38218831958306E+00
 Reduced coordinates (xred)
 -2.74859499613361E-19  2.49593938167045E-05  3.26250810328472E-19
  5.00000000000000E-01  4.99983983390251E-01  5.00000000000000E-01
  6.95904914370893E-01  5.33088006723939E-06  3.04095085629107E-01
  3.04095085629107E-01  5.33088006723939E-06  6.95904914370893E-01
  1.95904914370893E-01  5.00003611904000E-01  1.95904914370893E-01
  8.04095085629107E-01  5.00003611904000E-01  8.04095085629107E-01
 Cartesian forces (fcart) [Ha/bohr]; max,rms= 1.58646E-04 5.31734E-05 (free atoms)
 -0.00000000000000E+00  1.58646061486418E-04 -0.00000000000000E+00
 -0.00000000000000E+00 -1.58646061486418E-04 -0.00000000000000E+00
  7.66002569544557E-06 -4.65838563321713E-06 -7.66002569544557E-06
 -7.66002569544557E-06 -4.65838563321713E-06  7.66002569544557E-06
  7.66002569544557E-06  4.65838563321713E-06  7.66002569544557E-06
 -7.66002569544557E-06  4.65838563321713E-06 -7.66002569544557E-06
 Reduced forces (fred)
 -0.00000000000000E+00 -9.38090021372121E-04 -0.00000000000000E+00
  0.00000000000000E+00  9.38090021372121E-04  0.00000000000000E+00
 -7.03247081436676E-05  2.75454999467374E-05  7.03247081436676E-05
  7.03247081436676E-05  2.75454999467374E-05 -7.03247081436676E-05
 -7.03247081436676E-05 -2.75454999467374E-05 -7.03247081436676E-05
  7.03247081436676E-05 -2.75454999467374E-05  7.03247081436676E-05
 Scale of Primitive Cell (acell) [bohr]
  9.18074050136420E+00  5.91309996972369E+00  9.18074050136420E+00
 Real space primitive translations (rprimd) [bohr]
  9.18074050136420E+00  0.00000000000000E+00  0.00000000000000E+00
  0.00000000000000E+00  5.91309996972369E+00  0.00000000000000E+00
  0.00000000000000E+00  0.00000000000000E+00  9.18074050136420E+00
 Unitary Cell Volume (ucvol) [Bohr^3]=  4.98391521302735E+02
 Angles (23,13,12)= [degrees]
  9.00000000000000E+01  9.00000000000000E+01  9.00000000000000E+01
 Lengths [Bohr]
  9.18074050136420E+00  5.91309996972369E+00  9.18074050136420E+00
 Stress tensor in cartesian coordinates (strten) [Ha/bohr^3]
  2.82838358702658E-07  0.00000000000000E+00  0.00000000000000E+00
  0.00000000000000E+00 -1.05278827333410E-05  0.00000000000000E+00
  0.00000000000000E+00  0.00000000000000E+00  2.82838358699189E-07
 Total energy (etotal) [Ha]= -7.51881731844339E+01

 Difference of energy with previous step (new-old):
           Absolute (Ha)=-1.98262E-07
           Relative     =-2.63687E-09

--- Iteration: (16/30) Internal Cycle: (1/1)
--------------------------------------------------------------------------------

---SELF-CONSISTENT-FIELD CONVERGENCE--------------------------------------------

     iter   Etot(hartree)      deltaE(h)  residm     vres2
 ETOT  1  -75.188138034024    -7.519E+01 2.894E-07 1.570E+00
 ETOT  2  -75.187890322108     2.477E-04 2.864E-07 1.123E+01
 ETOT  3  -75.188170877729    -2.806E-04 2.200E-06 4.442E-02
 ETOT  4  -75.188174472226    -3.594E-06 3.520E-07 1.292E-02
 ETOT  5  -75.188174424785     4.744E-08 8.231E-08 3.875E-02

 At SCF step    5, etot is converged : 
  for the second time, diff in etot=  4.744E-08 < toldfe=  1.000E-04

 Cartesian components of stress tensor (hartree/bohr^3)
  sigma(1 1)=  1.22350223E-05  sigma(3 2)=  0.00000000E+00
  sigma(2 2)=  2.88800395E-06  sigma(3 1)=  0.00000000E+00
  sigma(3 3)=  1.22350223E-05  sigma(2 1)=  0.00000000E+00

 Integrated electronic density in atomic spheres:
 ------------------------------------------------
 Atom  Sphere_radius  Integrated_density
    1        2.00000          1.53088955
    2        2.00000          1.52873277
    3        2.00000          6.08613822
    4        2.00000          6.08613822
    5        2.00000          6.08415739
    6        2.00000          6.08415739

---OUTPUT-----------------------------------------------------------------------

 Cartesian coordinates (xcart) [bohr]
 -2.58394596759778E-18  2.87505709736470E-04  3.06299711446659E-18
  4.59044399129150E+00  2.95636285417750E+00  4.59044399129150E+00
  6.38887319234272E+00  2.62715496347981E-05  2.79201479024028E+00
  2.79201479024028E+00  2.62715496347981E-05  6.38887319234272E+00
  1.79842920105122E+00  2.95662408833759E+00  1.79842920105122E+00
  7.38245878153178E+00  2.95662408833759E+00  7.38245878153178E+00
 Reduced coordinates (xred)
 -2.81448371061684E-19  4.86210435701292E-05  3.33627544555318E-19
  5.00000000000000E-01  4.99960321740498E-01  5.00000000000000E-01
  6.95888372068476E-01  4.44286884117592E-06  3.04111627931524E-01
  3.04111627931524E-01  4.44286884117592E-06  6.95888372068476E-01
  1.95888372068476E-01  5.00004499915226E-01  1.95888372068476E-01
  8.04111627931524E-01  5.00004499915226E-01  8.04111627931524E-01
 Cartesian forces (fcart) [Ha/bohr]; max,rms= 1.69461E-04 1.14684E-04 (free atoms)
 -0.00000000000000E+00  5.73529254083431E-05  9.03501810404587E-21
 -0.00000000000000E+00 -5.73529254083431E-05  9.03501810404587E-21
 -1.69461302305215E-04 -1.03433022655049E-05  1.69461302305215E-04
  1.69461302305215E-04 -1.03433022655049E-05 -1.69461302305215E-04
 -1.69461302305215E-04  1.03433022655049E-05 -1.69461302305215E-04
  1.69461302305215E-04  1.03433022655049E-05  1.69461302305215E-04
 Reduced forces (fred)
 -0.00000000000000E+00 -3.39139029404108E-04 -8.29494891338546E-20
 -0.00000000000000E+00  3.39139029404108E-04 -8.29494891338546E-20
  1.55580523384681E-03  6.11619628150019E-05 -1.55580523384681E-03
 -1.55580523384681E-03  6.11619628150019E-05  1.55580523384681E-03
  1.55580523384681E-03 -6.11619628150019E-05  1.55580523384681E-03
 -1.55580523384681E-03 -6.11619628150019E-05 -1.55580523384681E-03
[...]
 Cartesian forces (fcart) [Ha/bohr]; max,rms= 3.65278E-05 2.46457E-05 (free atoms)
  1.12937726300573E-21 -1.53561983863960E-07 -5.64688631502867E-22
  1.12937726300573E-21  1.53561983863956E-07 -5.64688631502867E-22
 -2.64486665896789E-05  3.65278145628780E-05  2.64486665896789E-05
  2.64486665896789E-05  3.65278145628780E-05 -2.64486665896789E-05
 -2.64486665896789E-05 -3.65278145628780E-05 -2.64486665896789E-05
  2.64486665896789E-05 -3.65278145628780E-05  2.64486665896789E-05
 Reduced forces (fred)
 -1.03687573887728E-20  9.08048188355490E-07  5.18437869438640E-21
 -1.03687573887728E-20 -9.08048188355464E-07  5.18437869438640E-21
  2.42823913769131E-04 -2.15997573121944E-04 -2.42823913769131E-04
 -2.42823913769131E-04 -2.15997573121945E-04  2.42823913769131E-04
  2.42823913769131E-04  2.15997573121944E-04  2.42823913769131E-04
 -2.42823913769131E-04  2.15997573121944E-04 -2.42823913769131E-04
 Scale of Primitive Cell (acell) [bohr]
  9.18095106782769E+00  5.91323559065194E+00  9.18095106782769E+00
 Real space primitive translations (rprimd) [bohr]
  9.18095106782769E+00  0.00000000000000E+00  0.00000000000000E+00
  0.00000000000000E+00  5.91323559065194E+00  0.00000000000000E+00
  0.00000000000000E+00  0.00000000000000E+00  9.18095106782769E+00
 Unitary Cell Volume (ucvol) [Bohr^3]=  4.98425814924382E+02
 Angles (23,13,12)= [degrees]
  9.00000000000000E+01  9.00000000000000E+01  9.00000000000000E+01
 Lengths [Bohr]
  9.18095106782769E+00  5.91323559065194E+00  9.18095106782769E+00
 Stress tensor in cartesian coordinates (strten) [Ha/bohr^3]
  3.51903702740242E-06  0.00000000000000E+00  0.00000000000000E+00
  0.00000000000000E+00 -6.86832085384018E-06  0.00000000000000E+00
  0.00000000000000E+00  0.00000000000000E+00  3.51903702740589E-06
 Total energy (etotal) [Ha]= -7.51881750838339E+01

 Difference of energy with previous step (new-old):
           Absolute (Ha)=-7.35216E-07
           Relative     =-9.77835E-09

 At Broyd/MD step  21, gradients are converged : 
  max grad (force/stress) = 3.6528E-05 < tolmxf= 5.0000E-05 ha/bohr (free atoms)

================================================================================

 ----iterations are completed or convergence reached----

 Mean square residual over all n,k,spin=   3.8133E-09; max=  3.1936E-08
 reduced coordinates (array xred) for    6 atoms
      -0.000000000000     -0.000147289501      0.000000000000
       0.500000000000      0.500156232285      0.500000000000
       0.695865542180      0.000000007066      0.304134457820
       0.304134457820      0.000000007066      0.695865542180
       0.195865542180      0.500008935718      0.195865542180
       0.804134457820      0.500008935718      0.804134457820
 rms dE/dt=  1.9124E-04; max dE/dt=  2.4282E-04; dE/dt below (all hartree)
    1       0.000000000000      0.000000908048      0.000000000000
    2       0.000000000000     -0.000000908048      0.000000000000
    3       0.000242823914     -0.000215997573     -0.000242823914
    4      -0.000242823914     -0.000215997573      0.000242823914
    5       0.000242823914      0.000215997573      0.000242823914
    6      -0.000242823914      0.000215997573     -0.000242823914

 cartesian coordinates (angstrom) at end:
    1     -0.00000000000000    -0.00046089086764     0.00000000000000
    2      2.42917502913722     1.56506362597408     2.42917502913722
    3      3.38075839740264     0.00000002210944     1.47759166087178
    4      1.47759166087179     0.00000002210944     3.38075839740264
    5      0.95158336826543     1.56460271299700     0.95158336826543
    6      3.90676669000901     1.56460271299700     3.90676669000901

 cartesian forces (hartree/bohr) at end:
    1      0.00000000000000    -0.00000015356198    -0.00000000000000
    2      0.00000000000000     0.00000015356198    -0.00000000000000
    3     -0.00002644866659     0.00003652781456     0.00002644866659
    4      0.00002644866659     0.00003652781456    -0.00002644866659
    5     -0.00002644866659    -0.00003652781456    -0.00002644866659
    6      0.00002644866659    -0.00003652781456     0.00002644866659
 frms,max,avg= 2.4645743E-05 3.6527815E-05   0.000E+00  0.000E+00  0.000E+00 h/b

 cartesian forces (eV/Angstrom) at end:
    1      0.00000000000000    -0.00000789647404    -0.00000000000000
    2      0.00000000000000     0.00000789647404    -0.00000000000000
    3     -0.00136004500472     0.00187833558873     0.00136004500472
    4      0.00136004500472     0.00187833558873    -0.00136004500472
    5     -0.00136004500472    -0.00187833558873    -0.00136004500472
    6      0.00136004500472    -0.00187833558873     0.00136004500472
 frms,max,avg= 1.2673350E-03 1.8783356E-03   0.000E+00  0.000E+00  0.000E+00 e/A
 length scales=  9.180951067828  5.913235590652  9.180951067828 bohr
              =  4.858350058274  3.129149503596  4.858350058274 angstroms
 prteigrs : about to open file RutileGeom2_o_EIG
 Fermi (or HOMO) energy (hartree) =  -0.12159   Average Vxc (hartree)=  -0.37753
 Eigenvalues (hartree) for nkpt=   8  k points:
 kpt#   1, nband= 17, wtk=  0.12500, kpt= -0.2500  0.5000  0.0000 (reduced coord)
  -0.71135   -0.71134   -0.70480   -0.70480   -0.26013   -0.26011   -0.24824   -0.24821
  -0.22124   -0.22121   -0.20480   -0.20478   -0.17089   -0.17088   -0.16068   -0.16065
  -0.04112
 prteigrs : prtvol=0 or 1, do not print more k-points.


--------------------------------------------------------------------------------
 Components of total free energy (in Hartree) :

    Kinetic energy  =  5.52905317706827E+01
    Hartree energy  =  1.96563454383667E+01
    XC energy       = -2.10697505745509E+01
    Ewald energy    = -5.48856111230754E+01
    PspCore energy  =  8.96641579323133E+00
    Loc. psp. energy= -7.92776705720948E+01
    NL   psp  energy= -3.86843581639345E+00
    >>>>>>>>> Etotal= -7.51881750838339E+01

 Other information on the energy :
    Total energy(eV)= -2.04597429393909E+03 ; Band energy (Ha)=  -1.0650411925E+01
--------------------------------------------------------------------------------
 rms coord change=  3.9070E-03   atom, delta coord (reduced):
     1       -0.000000000000     -0.000147289501      0.000000000000
     2        0.000000000000      0.000147289501      0.000000000000
     3        0.005860012736      0.000000007066     -0.005860012736
     4       -0.005860012736      0.000000007066      0.005860012736
     5        0.005860012736     -0.000000007066      0.005860012736
     6       -0.005860012736     -0.000000007066     -0.005860012736

 Cartesian components of stress tensor (hartree/bohr^3)
  sigma(1 1)=  3.51903703E-06  sigma(3 2)=  0.00000000E+00
  sigma(2 2)= -6.86832085E-06  sigma(3 1)=  0.00000000E+00
  sigma(3 3)=  3.51903703E-06  sigma(2 1)=  0.00000000E+00

-Cartesian components of stress tensor (GPa)         [Pressure= -1.6648E-03 GPa]
- sigma(1 1)=  1.03533626E-01  sigma(3 2)=  0.00000000E+00
- sigma(2 2)= -2.02072942E-01  sigma(3 1)=  0.00000000E+00
- sigma(3 3)=  1.03533626E-01  sigma(2 1)=  0.00000000E+00

== END DATASET(S) ==============================================================
================================================================================
  
 -outvars: echo values of variables after computation  --------
            acell      9.1809510678E+00  5.9132355907E+00  9.1809510678E+00 Bohr
              amu      4.78800000E+01  1.59994000E+01
           diemac      1.20000000E+01
          dilatmx      2.00000000E+00
             ecut      6.00000000E+01 Hartree
           ecutsm      5.00000000E-01 Hartree
           etotal     -7.5188175084E+01
            fcart      1.1293772630E-21 -1.5356198386E-07 -5.6468863150E-22
                       1.1293772630E-21  1.5356198386E-07 -5.6468863150E-22
                      -2.6448666590E-05  3.6527814563E-05  2.6448666590E-05
                       2.6448666590E-05  3.6527814563E-05 -2.6448666590E-05
                      -2.6448666590E-05 -3.6527814563E-05 -2.6448666590E-05
                       2.6448666590E-05 -3.6527814563E-05  2.6448666590E-05
-          fftalg         112
           getwfk          -1
           ionmov           2
              ixc          11
              kpt     -2.50000000E-01  5.00000000E-01  0.00000000E+00
                       5.00000000E-01 -2.50000000E-01  0.00000000E+00
                      -2.50000000E-01 -2.50000000E-01  2.50000000E-01
                      -2.50000000E-01  0.00000000E+00  0.00000000E+00
                       5.00000000E-01  5.00000000E-01  2.50000000E-01
                       0.00000000E+00 -2.50000000E-01  0.00000000E+00
                       5.00000000E-01 -2.50000000E-01  5.00000000E-01
                       5.00000000E-01  0.00000000E+00  2.50000000E-01
         kptrlatt        2   -2    2      0    4    0     -2   -2    2
          kptrlen      2.23644000E+01
P           mkmem           8
            natom           6
            nband          17
            ngfft         125      80     125
             nkpt           8
            nstep          20
             nsym           8
            ntime          30
           ntypat           2
              occ      2.000000  2.000000  2.000000  2.000000  2.000000  2.000000
                       2.000000  2.000000  2.000000  2.000000  2.000000  2.000000
                       2.000000  2.000000  2.000000  2.000000  0.000000
          optcell           1
           shiftk      5.00000000E-01  0.00000000E+00  5.00000000E-01
          spgroup         113
           strten      3.5190370274E-06 -6.8683208538E-06  3.5190370274E-06
                       0.0000000000E+00  0.0000000000E+00  0.0000000000E+00
           symrel      1  0  0   0  1  0   0  0  1       1  0  0   0 -1  0   0  0 -1
                      -1  0  0   0  1  0   0  0 -1      -1  0  0   0 -1  0   0  0  1
                       0  0  1   0  1  0   1  0  0       0  0  1   0 -1  0  -1  0  0
                       0  0 -1   0  1  0  -1  0  0       0  0 -1   0 -1  0   1  0  0
            tnons      0.0000000  0.0000000  0.0000000     0.5000000 -0.4999911  0.5000000
                       0.0000000  0.0000000  0.0000000     0.5000000 -0.4999911  0.5000000
                       0.0000000  0.0000000  0.0000000     0.5000000 -0.4999911  0.5000000
                       0.0000000  0.0000000  0.0000000     0.5000000 -0.4999911  0.5000000
           toldfe      1.00000000E-04 Hartree
            typat      1  1  2  2  2  2
              wtk        0.12500    0.12500    0.25000    0.12500    0.12500    0.06250
                         0.06250    0.12500
           xangst     -1.4239713117E-18 -4.6089086764E-04  1.6440291783E-18
                       2.4291750291E+00  1.5650636260E+00  2.4291750291E+00
                       3.3807583974E+00  2.2109442035E-08  1.4775916609E+00
                       1.4775916609E+00  2.2109442035E-08  3.3807583974E+00
                       9.5158336827E-01  1.5646027130E+00  9.5158336827E-01
                       3.9067666900E+00  1.5646027130E+00  3.9067666900E+00
            xcart     -2.6909158002E-18 -8.7095751698E-04  3.1067649016E-18
                       4.5904755339E+00  2.9575416336E+00  4.5904755339E+00
                       6.3887074925E+00  4.1780790397E-08  2.7922435753E+00
                       2.7922435753E+00  4.1780790396E-08  6.3887074925E+00
                       1.7982319586E+00  2.9566706343E+00  1.7982319586E+00
                       7.3827191092E+00  2.9566706343E+00  7.3827191092E+00
             xred     -2.9309771725E-19 -1.4728950058E-04  3.3839249100E-19
                       5.0000000000E-01  5.0015623228E-01  5.0000000000E-01
                       6.9586554218E-01  7.0656394044E-09  3.0413445782E-01
                       3.0413445782E-01  7.0656394043E-09  6.9586554218E-01
                       1.9586554218E-01  5.0000893572E-01  1.9586554218E-01
                       8.0413445782E-01  5.0000893572E-01  8.0413445782E-01
            znucl       22.00000    8.00000

================================================================================

- Total cpu        time (s,m,h):       6670.6      111.18      1.853
- Total wall clock time (s,m,h):       6688.4      111.47      1.858
-
- For major independent code sections, cpu and wall times (sec),
-  as well as % of the time and number of calls for node 0-
-<BEGIN_TIMER mpi_nprocs = 1, omp_nthreads = 1, mpi_rank = 0>
- cpu_time =         6670.6, wall_time =         6688.4
-
- routine                        cpu     %       wall     %      number of calls  Gflops    Speedup Efficacity
-                                                                  (-1=no count)
- fourwf%(pot)                3572.969  53.6   3580.468  53.5         117543      -1.00        1.00       1.00
- projbd                      1001.906  15.0   1005.968  15.0         188030      -1.00        1.00       1.00
- nonlop(apply)                745.781  11.2    746.950  11.2         117543      -1.00        1.00       1.00
- fourwf%(den)                 297.016   4.5    297.919   4.5          16768      -1.00        1.00       1.00
- vtowfk(ssdiag)               203.109   3.0    204.054   3.1             -1      -1.00        1.00       1.00
- xc:pot/=fourdp                66.969   1.0     67.775   1.0            152      -1.00        0.99       0.99
- fourdp                        62.531   0.9     62.566   0.9           1892      -1.00        1.00       1.00
- getghc-other                  44.562   0.7     44.765   0.7             -1      -1.00        1.00       1.00
- nonlop(forstr)                39.906   0.6     39.820   0.6           2688      -1.00        1.00       1.00
- others (104)                  52.375   0.8     52.239   0.8             -1      -1.00        1.00       1.00
-<END_TIMER>
-
- subtotal                    6087.125  91.3   6102.524  91.2                                  1.00       1.00

- For major independent code sections, cpu and wall times (sec),
- as well as % of the total time and number of calls 

-<BEGIN_TIMER mpi_nprocs = 1, omp_nthreads = 1, mpi_rank = world>
- cpu_time =        6670.6, wall_time =        6688.4
-
- routine                         cpu     %       wall     %      number of calls Gflops    Speedup Efficacity
-                                                                  (-1=no count)
- fourwf%(pot)                3572.969  53.6   3580.468  53.5         117543      -1.00        1.00       1.00
- projbd                      1001.906  15.0   1005.968  15.0         188030      -1.00        1.00       1.00
- nonlop(apply)                745.781  11.2    746.950  11.2         117543      -1.00        1.00       1.00
- fourwf%(den)                 297.016   4.5    297.919   4.5          16768      -1.00        1.00       1.00
- vtowfk(ssdiag)               203.109   3.0    204.054   3.1             -1      -1.00        1.00       1.00
- xc:pot/=fourdp                66.969   1.0     67.775   1.0            152      -1.00        0.99       0.99
- fourdp                        62.531   0.9     62.566   0.9           1892      -1.00        1.00       1.00
- getghc-other                  44.562   0.7     44.765   0.7             -1      -1.00        1.00       1.00
- nonlop(forstr)                39.906   0.6     39.820   0.6           2688      -1.00        1.00       1.00
- others (104)                  52.375   0.8     52.239   0.8             -1      -1.00        1.00       1.00
-<END_TIMER>

- subtotal                    6087.125  91.3   6102.524  91.2                                  1.00       1.00

================================================================================

 Suggested references for the acknowledgment of ABINIT usage.

 The users of ABINIT have little formal obligations with respect to the ABINIT group
 (those specified in the GNU General Public License, http://www.gnu.org/copyleft/gpl.txt).
 However, it is common practice in the scientific literature,
 to acknowledge the efforts of people that have made the research possible.
 In this spirit, please find below suggested citations of work written by ABINIT developers,
 corresponding to implementations inside of ABINIT that you have used in the present run.
 Note also that it will be of great value to readers of publications presenting these results,
 to read papers enabling them to understand the theoretical formalism and details
 of the ABINIT implementation.
 For information on why they are suggested, see also https://www.abinit.org/about/?text=acknowledgments.
-
- [1] Recent developments in the ABINIT software package.
- Computer Phys. Comm. 205, 106 (2016).
- X.Gonze, F.Jollet, F.Abreu Araujo, D.Adams, B.Amadon, T.Applencourt,
- C.Audouze, J.-M.Beuken, J.Bieder, A.Bokhanchuk, E.Bousquet, F.Bruneval
- D.Caliste, M.Cote, F.Dahm, F.Da Pieve, M.Delaveau, M.Di Gennaro,
- B.Dorado, C.Espejo, G.Geneste, L.Genovese, A.Gerossier, M.Giantomassi,
- Y.Gillet, D.R.Hamann, L.He, G.Jomard, J.Laflamme Janssen, S.Le Roux,
- A.Levitt, A.Lherbier, F.Liu, I.Lukacevic, A.Martin, C.Martins,
- M.J.T.Oliveira, S.Ponce, Y.Pouillon, T.Rangel, G.-M.Rignanese,
- A.H.Romero, B.Rousseau, O.Rubel, A.A.Shukri, M.Stankovski, M.Torrent,
- M.J.Van Setten, B.Van Troeye, M.J.Verstraete, D.Waroquier, J.Wiktor,
- B.Xue, A.Zhou, J.W.Zwanziger.
- Comment : the fourth generic paper describing the ABINIT project.
- Note that a version of this paper, that is not formatted for Computer Phys. Comm. 
- is available at https://www.abinit.org/about/ABINIT16.pdf .
- The licence allows the authors to put it on the Web.
-
- [2] ABINIT : First-principles approach of materials and nanosystem properties.
- Computer Phys. Comm. 180, 2582-2615 (2009).
- X. Gonze, B. Amadon, P.-M. Anglade, J.-M. Beuken, F. Bottin, P. Boulanger, F. Bruneval,
- D. Caliste, R. Caracas, M. Cote, T. Deutsch, L. Genovese, Ph. Ghosez, M. Giantomassi
- S. Goedecker, D.R. Hamann, P. Hermet, F. Jollet, G. Jomard, S. Leroux, M. Mancini, S. Mazevet,
- M.J.T. Oliveira, G. Onida, Y. Pouillon, T. Rangel, G.-M. Rignanese, D. Sangalli, R. Shaltaf,
- M. Torrent, M.J. Verstraete, G. Zerah, J.W. Zwanziger
- Comment : the third generic paper describing the ABINIT project.
- Note that a version of this paper, that is not formatted for Computer Phys. Comm. 
- is available at https://www.abinit.org/about/ABINIT_CPC_v10.pdf .
- The licence allows the authors to put it on the Web.
-
- [3] A brief introduction to the ABINIT software package.
- Z. Kristallogr. 220, 558-562 (2005).
- X. Gonze, G.-M. Rignanese, M. Verstraete, J.-M. Beuken, Y. Pouillon, R. Caracas, F. Jollet,
- M. Torrent, G. Zerah, M. Mikami, Ph. Ghosez, M. Veithen, J.-Y. Raty, V. Olevano, F. Bruneval,
- L. Reining, R. Godby, G. Onida, D.R. Hamann, and D.C. Allan.
- Comment : the second generic paper describing the ABINIT project. Note that this paper
- should be cited especially if you are using the GW part of ABINIT, as several authors
- of this part are not in the list of authors of the first or third paper.
- The .pdf of the latter paper is available at https://www.abinit.org/about/zfk_0505-06_558-562.pdf.
- Note that it should not redistributed (Copyright by Oldenburg Wissenshaftverlag,
- the licence allows the authors to put it on the Web).
-
- And optionally:
-
- [4] First-principles computation of material properties : the ABINIT software project. 
- X. Gonze, J.-M. Beuken, R. Caracas, F. Detraux, M. Fuchs, G.-M. Rignanese, L. Sindic,
- M. Verstraete, G. Zerah, F. Jollet, M. Torrent, A. Roy, M. Mikami, Ph. Ghosez, J.-Y. Raty, D.C. Allan.
- Computational Materials Science 25, 478-492 (2002). http://dx.doi.org/10.1016/S0927-0256(02)00325-7
- Comment : the original paper describing the ABINIT project.
-
- Proc.   0 individual time (sec): cpu=       6670.6  wall=       6688.4

================================================================================

 Calculation completed.
.Delivered   6 WARNINGs and  21 COMMENTs to log file.
+Overall time at end (sec) : cpu=       6670.6  wall=       6688.4
