
.Version 8.6.3 of ABINIT 
.(sequential version, prepared for a x86_64_linux_gnu5.4 computer) 

.Copyright (C) 1998-2017 ABINIT group . 
 ABINIT comes with ABSOLUTELY NO WARRANTY.
 It is free software, and you are welcome to redistribute it
 under certain conditions (GNU General Public License,
 see ~abinit/COPYING or http://www.gnu.org/copyleft/gpl.txt).

 ABINIT is a project of the Universite Catholique de Louvain,
 Corning Inc. and other collaborators, see ~abinit/doc/developers/contributors.txt .
 Please read ~abinit/doc/users/acknowledgments.html for suggested
 acknowledgments of the ABINIT effort.
 For more information, see https://www.abinit.org .

.Starting date : Thu 26 Apr 2018.
- ( at 17h39 )
  
- input  file    -> manualGeomOpt3.in
- output file    -> manualGeomOpt3.out
- root for input  files -> manualGeomOpt3_i
- root for output files -> manualGeomOpt3_o


 DATASET    1 : space group P1 (#  1); Bravais aP (primitive triclinic)
================================================================================
 Values of the parameters that define the memory need for DATASET  1.
     intxc =       0    ionmov =       0      iscf =       7    lmnmax =       6
     lnmax =       6     mgfft =     180  mpssoang =       3    mqgrid =    8718
     natom =      10  nloc_mem =       1    nspden =       1   nspinor =       1
    nsppol =       1      nsym =       1    n1xccc =    2501    ntypat =       3
    occopt =       1   xclevel =       2
-    mband =          62        mffmem =           1         mkmem =           2
       mpw =       41884          nfft =      737280          nkpt =           2
================================================================================
P This job should need less than                     303.659 Mbytes of memory.
  Rough estimation (10% accuracy) of disk space for files :
_ WF disk file :     79.250 Mbytes ; DEN or POT disk file :      5.627 Mbytes.
================================================================================


 DATASET    2 : space group P1 (#  1); Bravais aP (primitive triclinic)
================================================================================
 Values of the parameters that define the memory need for DATASET  2.
     intxc =       0    ionmov =       0      iscf =       7    lmnmax =       6
     lnmax =       6     mgfft =     180  mpssoang =       3    mqgrid =    8892
     natom =      10  nloc_mem =       1    nspden =       1   nspinor =       1
    nsppol =       1      nsym =       1    n1xccc =    2501    ntypat =       3
    occopt =       1   xclevel =       2
-    mband =          62        mffmem =           1         mkmem =           2
       mpw =       42700          nfft =      737280          nkpt =           2
================================================================================
P This job should need less than                     305.280 Mbytes of memory.
  Rough estimation (10% accuracy) of disk space for files :
_ WF disk file :     80.794 Mbytes ; DEN or POT disk file :      5.627 Mbytes.
================================================================================


 DATASET    3 : space group P1 (#  1); Bravais aP (primitive triclinic)
================================================================================
 Values of the parameters that define the memory need for DATASET  3.
     intxc =       0    ionmov =       0      iscf =       7    lmnmax =       6
     lnmax =       6     mgfft =     192  mpssoang =       3    mqgrid =    9066
     natom =      10  nloc_mem =       1    nspden =       1   nspinor =       1
    nsppol =       1      nsym =       1    n1xccc =    2501    ntypat =       3
    occopt =       1   xclevel =       2
-    mband =          62        mffmem =           1         mkmem =           2
       mpw =       43544          nfft =      786432          nkpt =           2
================================================================================
P This job should need less than                     321.614 Mbytes of memory.
  Rough estimation (10% accuracy) of disk space for files :
_ WF disk file :     82.391 Mbytes ; DEN or POT disk file :      6.002 Mbytes.
================================================================================


 DATASET    4 : space group P1 (#  1); Bravais aP (primitive triclinic)
================================================================================
 Values of the parameters that define the memory need for DATASET  4.
     intxc =       0    ionmov =       0      iscf =       7    lmnmax =       6
     lnmax =       6     mgfft =     192  mpssoang =       3    mqgrid =    9241
     natom =      10  nloc_mem =       1    nspden =       1   nspinor =       1
    nsppol =       1      nsym =       1    n1xccc =    2501    ntypat =       3
    occopt =       1   xclevel =       2
-    mband =          62        mffmem =           1         mkmem =           2
       mpw =       44404          nfft =      786432          nkpt =           2
================================================================================
P This job should need less than                     323.320 Mbytes of memory.
  Rough estimation (10% accuracy) of disk space for files :
_ WF disk file :     84.018 Mbytes ; DEN or POT disk file :      6.002 Mbytes.
================================================================================


 DATASET    5 : space group P1 (#  1); Bravais aP (primitive triclinic)
================================================================================
 Values of the parameters that define the memory need for DATASET  5.
     intxc =       0    ionmov =       0      iscf =       7    lmnmax =       6
     lnmax =       6     mgfft =     192  mpssoang =       3    mqgrid =    9415
     natom =      10  nloc_mem =       1    nspden =       1   nspinor =       1
    nsppol =       1      nsym =       1    n1xccc =    2501    ntypat =       3
    occopt =       1   xclevel =       2
-    mband =          62        mffmem =           1         mkmem =           2
       mpw =       45244          nfft =      786432          nkpt =           2
================================================================================
P This job should need less than                     324.987 Mbytes of memory.
  Rough estimation (10% accuracy) of disk space for files :
_ WF disk file :     85.608 Mbytes ; DEN or POT disk file :      6.002 Mbytes.
================================================================================

--------------------------------------------------------------------------------
------------- Echo of variables that govern the present computation ------------
--------------------------------------------------------------------------------
-
- outvars: echo of selected default values                                      
-   iomode0 =  0 , fftalg0 =112 , wfoptalg0 =  0
-
- outvars: echo of global parameters not present in the input file              
-  max_nthreads =    0
-
 -outvars: echo values of preprocessed input variables --------
            acell1     8.6808000000E+00  8.6808000000E+00  2.5000000000E+01 Bohr
            acell2     8.6808000000E+00  8.6808000000E+00  2.5500000000E+01 Bohr
            acell3     8.6808000000E+00  8.6808000000E+00  2.6000000000E+01 Bohr
            acell4     8.6808000000E+00  8.6808000000E+00  2.6500000000E+01 Bohr
            acell5     8.6808000000E+00  8.6808000000E+00  2.7000000000E+01 Bohr
              amu      4.78800000E+01  1.59994000E+01  1.06420000E+02
           diemac      1.20000000E+01
             ecut      6.00000000E+01 Hartree
-          fftalg         112
              ixc          11
           jdtset        1    2    3    4    5
              kpt      1.25000000E-01  5.00000000E-01  5.00000000E-01
                       3.75000000E-01  5.00000000E-01  5.00000000E-01
           kptopt           2
         kptrlatt        4    0    0      0    1    0      0    0    1
          kptrlen      8.68080000E+00
P           mkmem           2
            natom          10
            nband          62
           ndtset           5
            ngfft1         64      64     180
            ngfft2         64      64     180
            ngfft3         64      64     192
            ngfft4         64      64     192
            ngfft5         64      64     192
             nkpt           2
            nstep          50
             nsym           1
           ntypat           3
              occ      2.000000  2.000000  2.000000  2.000000  2.000000  2.000000
                       2.000000  2.000000  2.000000  2.000000  2.000000  2.000000
                       2.000000  2.000000  2.000000  2.000000  2.000000  2.000000
                       2.000000  2.000000  2.000000  2.000000  2.000000  2.000000
                       2.000000  2.000000  2.000000  2.000000  2.000000  2.000000
                       2.000000  2.000000  2.000000  2.000000  2.000000  2.000000
                       2.000000  2.000000  2.000000  2.000000  2.000000  2.000000
                       2.000000  2.000000  2.000000  2.000000  2.000000  2.000000
                       2.000000  2.000000  2.000000  2.000000  2.000000  2.000000
                       2.000000  2.000000  2.000000  2.000000  2.000000  2.000000
                       0.000000  0.000000
           shiftk      5.00000000E-01  5.00000000E-01  5.00000000E-01
          spgroup           1
           toldfe      1.00000000E-04 Hartree
            typat      1  1  2  2  2  2  3  3  3  3
              wtk        0.50000    0.50000
           xangst1     0.0000000000E+00  0.0000000000E+00  0.0000000000E+00
                       2.2968407562E+00  1.4793678043E+00  2.2968407562E+00
                       1.4240158683E+00  0.0000000000E+00  1.4240158683E+00
                       3.1696656440E+00  0.0000000000E+00  3.1696656440E+00
                       8.7282488785E-01  1.4793678043E+00  3.7208566245E+00
                       3.7208566245E+00  1.4793678043E+00  8.7282488785E-01
                       8.7282488785E-01  0.0000000000E+00  5.6520359295E+00
                       1.9453612542E+00  1.3755961537E+00  7.0276320832E+00
                       1.9453612542E+00 -1.3755961537E+00  7.0276320832E+00
                       0.0000000000E+00  0.0000000000E+00  8.4031753192E+00
           xangst2     0.0000000000E+00  0.0000000000E+00  0.0000000000E+00
                       2.2968407562E+00  1.4793678043E+00  2.2968407562E+00
                       1.4240158683E+00  0.0000000000E+00  1.4240158683E+00
                       3.1696656440E+00  0.0000000000E+00  3.1696656440E+00
                       8.7282488785E-01  1.4793678043E+00  3.7208566245E+00
                       3.7208566245E+00  1.4793678043E+00  8.7282488785E-01
                       8.7282488785E-01  0.0000000000E+00  5.9166245338E+00
                       1.9453612542E+00  1.3755961537E+00  7.2922206875E+00
                       1.9453612542E+00 -1.3755961537E+00  7.2922206875E+00
                       0.0000000000E+00  0.0000000000E+00  8.6677639235E+00
           xangst3     0.0000000000E+00  0.0000000000E+00  0.0000000000E+00
                       2.2968407562E+00  1.4793678043E+00  2.2968407562E+00
                       1.4240158683E+00  0.0000000000E+00  1.4240158683E+00
                       3.1696656440E+00  0.0000000000E+00  3.1696656440E+00
                       8.7282488785E-01  1.4793678043E+00  3.7208566245E+00
                       3.7208566245E+00  1.4793678043E+00  8.7282488785E-01
                       8.7282488785E-01  0.0000000000E+00  6.1812131381E+00
                       1.9453612542E+00  1.3755961537E+00  7.5568092918E+00
                       1.9453612542E+00 -1.3755961537E+00  7.5568092918E+00
                       0.0000000000E+00  0.0000000000E+00  8.9323525278E+00
           xangst4     0.0000000000E+00  0.0000000000E+00  0.0000000000E+00
                       2.2968407562E+00  1.4793678043E+00  2.2968407562E+00
                       1.4240158683E+00  0.0000000000E+00  1.4240158683E+00
                       3.1696656440E+00  0.0000000000E+00  3.1696656440E+00
                       8.7282488785E-01  1.4793678043E+00  3.7208566245E+00
                       3.7208566245E+00  1.4793678043E+00  8.7282488785E-01
                       8.7282488785E-01  0.0000000000E+00  6.4458017424E+00
                       1.9453612542E+00  1.3755961537E+00  7.8213978961E+00
                       1.9453612542E+00 -1.3755961537E+00  7.8213978961E+00
                       0.0000000000E+00  0.0000000000E+00  9.1969411321E+00
           xangst5     0.0000000000E+00  0.0000000000E+00  0.0000000000E+00
                       2.2968407562E+00  1.4793678043E+00  2.2968407562E+00
                       1.4240158683E+00  0.0000000000E+00  1.4240158683E+00
                       3.1696656440E+00  0.0000000000E+00  3.1696656440E+00
                       8.7282488785E-01  1.4793678043E+00  3.7208566245E+00
                       3.7208566245E+00  1.4793678043E+00  8.7282488785E-01
                       8.7282488785E-01  0.0000000000E+00  6.7103903467E+00
                       1.9453612542E+00  1.3755961537E+00  8.0859865004E+00
                       1.9453612542E+00 -1.3755961537E+00  8.0859865004E+00
                       0.0000000000E+00  0.0000000000E+00  9.4615297364E+00
            xcart1     0.0000000000E+00  0.0000000000E+00  0.0000000000E+00
                       4.3404000000E+00  2.7956000000E+00  4.3404000000E+00
                       2.6910000000E+00  0.0000000000E+00  2.6910000000E+00
                       5.9898000000E+00  0.0000000000E+00  5.9898000000E+00
                       1.6494000000E+00  2.7956000000E+00  7.0314000000E+00
                       7.0314000000E+00  2.7956000000E+00  1.6494000000E+00
                       1.6494000000E+00  0.0000000000E+00  1.0680800000E+01
                       3.6762000000E+00  2.5995000000E+00  1.3280300000E+01
                       3.6762000000E+00 -2.5995000000E+00  1.3280300000E+01
                       0.0000000000E+00  0.0000000000E+00  1.5879700000E+01
            xcart2     0.0000000000E+00  0.0000000000E+00  0.0000000000E+00
                       4.3404000000E+00  2.7956000000E+00  4.3404000000E+00
                       2.6910000000E+00  0.0000000000E+00  2.6910000000E+00
                       5.9898000000E+00  0.0000000000E+00  5.9898000000E+00
                       1.6494000000E+00  2.7956000000E+00  7.0314000000E+00
                       7.0314000000E+00  2.7956000000E+00  1.6494000000E+00
                       1.6494000000E+00  0.0000000000E+00  1.1180800000E+01
                       3.6762000000E+00  2.5995000000E+00  1.3780300000E+01
                       3.6762000000E+00 -2.5995000000E+00  1.3780300000E+01
                       0.0000000000E+00  0.0000000000E+00  1.6379700000E+01
            xcart3     0.0000000000E+00  0.0000000000E+00  0.0000000000E+00
                       4.3404000000E+00  2.7956000000E+00  4.3404000000E+00
                       2.6910000000E+00  0.0000000000E+00  2.6910000000E+00
                       5.9898000000E+00  0.0000000000E+00  5.9898000000E+00
                       1.6494000000E+00  2.7956000000E+00  7.0314000000E+00
                       7.0314000000E+00  2.7956000000E+00  1.6494000000E+00
                       1.6494000000E+00  0.0000000000E+00  1.1680800000E+01
                       3.6762000000E+00  2.5995000000E+00  1.4280300000E+01
                       3.6762000000E+00 -2.5995000000E+00  1.4280300000E+01
                       0.0000000000E+00  0.0000000000E+00  1.6879700000E+01
            xcart4     0.0000000000E+00  0.0000000000E+00  0.0000000000E+00
                       4.3404000000E+00  2.7956000000E+00  4.3404000000E+00
                       2.6910000000E+00  0.0000000000E+00  2.6910000000E+00
                       5.9898000000E+00  0.0000000000E+00  5.9898000000E+00
                       1.6494000000E+00  2.7956000000E+00  7.0314000000E+00
                       7.0314000000E+00  2.7956000000E+00  1.6494000000E+00
                       1.6494000000E+00  0.0000000000E+00  1.2180800000E+01
                       3.6762000000E+00  2.5995000000E+00  1.4780300000E+01
                       3.6762000000E+00 -2.5995000000E+00  1.4780300000E+01
                       0.0000000000E+00  0.0000000000E+00  1.7379700000E+01
            xcart5     0.0000000000E+00  0.0000000000E+00  0.0000000000E+00
                       4.3404000000E+00  2.7956000000E+00  4.3404000000E+00
                       2.6910000000E+00  0.0000000000E+00  2.6910000000E+00
                       5.9898000000E+00  0.0000000000E+00  5.9898000000E+00
                       1.6494000000E+00  2.7956000000E+00  7.0314000000E+00
                       7.0314000000E+00  2.7956000000E+00  1.6494000000E+00
                       1.6494000000E+00  0.0000000000E+00  1.2680800000E+01
                       3.6762000000E+00  2.5995000000E+00  1.5280300000E+01
                       3.6762000000E+00 -2.5995000000E+00  1.5280300000E+01
                       0.0000000000E+00  0.0000000000E+00  1.7879700000E+01
             xred1     0.0000000000E+00  0.0000000000E+00  0.0000000000E+00
                       5.0000000000E-01  3.2204405124E-01  1.7361600000E-01
                       3.0999447056E-01  0.0000000000E+00  1.0764000000E-01
                       6.9000552944E-01  0.0000000000E+00  2.3959200000E-01
                       1.9000552944E-01  3.2204405124E-01  2.8125600000E-01
                       8.0999447056E-01  3.2204405124E-01  6.5976000000E-02
                       1.9000552944E-01  0.0000000000E+00  4.2723200000E-01
                       4.2348631463E-01  2.9945396738E-01  5.3121200000E-01
                       4.2348631463E-01 -2.9945396738E-01  5.3121200000E-01
                       0.0000000000E+00  0.0000000000E+00  6.3518800000E-01
             xred2     0.0000000000E+00  0.0000000000E+00  0.0000000000E+00
                       5.0000000000E-01  3.2204405124E-01  1.7021176471E-01
                       3.0999447056E-01  0.0000000000E+00  1.0552941176E-01
                       6.9000552944E-01  0.0000000000E+00  2.3489411765E-01
                       1.9000552944E-01  3.2204405124E-01  2.7574117647E-01
                       8.0999447056E-01  3.2204405124E-01  6.4682352941E-02
                       1.9000552944E-01  0.0000000000E+00  4.3846274510E-01
                       4.2348631463E-01  2.9945396738E-01  5.4040392157E-01
                       4.2348631463E-01 -2.9945396738E-01  5.4040392157E-01
                       0.0000000000E+00  0.0000000000E+00  6.4234117647E-01
             xred3     0.0000000000E+00  0.0000000000E+00  0.0000000000E+00
                       5.0000000000E-01  3.2204405124E-01  1.6693846154E-01
                       3.0999447056E-01  0.0000000000E+00  1.0350000000E-01
                       6.9000552944E-01  0.0000000000E+00  2.3037692308E-01
                       1.9000552944E-01  3.2204405124E-01  2.7043846154E-01
                       8.0999447056E-01  3.2204405124E-01  6.3438461538E-02
                       1.9000552944E-01  0.0000000000E+00  4.4926153846E-01
                       4.2348631463E-01  2.9945396738E-01  5.4924230769E-01
                       4.2348631463E-01 -2.9945396738E-01  5.4924230769E-01
                       0.0000000000E+00  0.0000000000E+00  6.4921923077E-01
             xred4     0.0000000000E+00  0.0000000000E+00  0.0000000000E+00
                       5.0000000000E-01  3.2204405124E-01  1.6378867925E-01
                       3.0999447056E-01  0.0000000000E+00  1.0154716981E-01
                       6.9000552944E-01  0.0000000000E+00  2.2603018868E-01
                       1.9000552944E-01  3.2204405124E-01  2.6533584906E-01
                       8.0999447056E-01  3.2204405124E-01  6.2241509434E-02
                       1.9000552944E-01  0.0000000000E+00  4.5965283019E-01
                       4.2348631463E-01  2.9945396738E-01  5.5774716981E-01
                       4.2348631463E-01 -2.9945396738E-01  5.5774716981E-01
                       0.0000000000E+00  0.0000000000E+00  6.5583773585E-01
             xred5     0.0000000000E+00  0.0000000000E+00  0.0000000000E+00
                       5.0000000000E-01  3.2204405124E-01  1.6075555556E-01
                       3.0999447056E-01  0.0000000000E+00  9.9666666667E-02
                       6.9000552944E-01  0.0000000000E+00  2.2184444444E-01
                       1.9000552944E-01  3.2204405124E-01  2.6042222222E-01
                       8.0999447056E-01  3.2204405124E-01  6.1088888889E-02
                       1.9000552944E-01  0.0000000000E+00  4.6965925926E-01
                       4.2348631463E-01  2.9945396738E-01  5.6593703704E-01
                       4.2348631463E-01 -2.9945396738E-01  5.6593703704E-01
                       0.0000000000E+00  0.0000000000E+00  6.6221111111E-01
            znucl       22.00000    8.00000   46.00000

================================================================================

 chkinp: Checking input parameters for consistency, jdtset=   1.

 chkinp: Checking input parameters for consistency, jdtset=   2.

 chkinp: Checking input parameters for consistency, jdtset=   3.

 chkinp: Checking input parameters for consistency, jdtset=   4.

 chkinp: Checking input parameters for consistency, jdtset=   5.

================================================================================
== DATASET  1 ==================================================================
-   nproc =    1

 Exchange-correlation functional for the present dataset will be:
  GGA: Perdew-Burke-Ernzerhof functional - ixc=11
 Citation for XC functional:
  J.P.Perdew, K.Burke, M.Ernzerhof, PRL 77, 3865 (1996)

 Real(R)+Recip(G) space primitive vectors, cartesian coordinates (Bohr,Bohr^-1):
 R(1)=  8.6808000  0.0000000  0.0000000  G(1)=  0.1151968  0.0000000  0.0000000
 R(2)=  0.0000000  8.6808000  0.0000000  G(2)=  0.0000000  0.1151968  0.0000000
 R(3)=  0.0000000  0.0000000 25.0000000  G(3)=  0.0000000  0.0000000  0.0400000
 Unit cell volume ucvol=  1.8839072E+03 bohr^3
 Angles (23,13,12)=  9.00000000E+01  9.00000000E+01  9.00000000E+01 degrees

 getcut: wavevector=  0.0000  0.0000  0.0000  ngfft=  64  64 180
         ecut(hartree)=     60.000   => boxcut(ratio)=   2.06487

--- Pseudopotential description ------------------------------------------------
- pspini: atom type   1  psp file is ../../../Psps_for_tests/Ti.psp8
- pspatm: opening atomic psp file    ../../../Psps_for_tests/Ti.psp8
- Ti    ONCVPSP-3.2.3.1  r_core=   1.35825   1.31050   1.66360
- 22.00000  12.00000    170504                znucl, zion, pspdat
    8   11    2    4       600   0.00000      pspcod,pspxc,lmax,lloc,mmax,r2well
    5.99000000000000    2.50000000000000    0.00000000000000   rchrg,fchrg,qchrg
     nproj     2     2     2
     extension_switch     1
  pspatm : epsatm=   14.68144390
         --- l  ekb(1:nproj) -->
             0   11.362348    1.263639
             1    1.975402   -0.084666
             2   -5.186090   -1.477451
 pspatm: atomic psp has been read  and splines computed

- pspini: atom type   2  psp file is ../../../Psps_for_tests/O.psp8
- pspatm: opening atomic psp file    ../../../Psps_for_tests/O.psp8
- O     ONCVPSP-3.2.3.1  r_core=   1.35509   1.45563   1.26150
-  8.00000   6.00000    170504                znucl, zion, pspdat
    8   11    2    4       600   0.00000      pspcod,pspxc,lmax,lloc,mmax,r2well
    5.99000000000000    4.00000000000000    0.00000000000000   rchrg,fchrg,qchrg
     nproj     2     2     1
     extension_switch     1
  pspatm : epsatm=    6.19546011
         --- l  ekb(1:nproj) -->
             0    6.056735    0.824024
             1   -4.717130   -1.149271
             2   -1.331955
 pspatm: atomic psp has been read  and splines computed

- pspini: atom type   3  psp file is ../../../Psps_for_tests/Pd.psp8
- pspatm: opening atomic psp file    ../../../Psps_for_tests/Pd.psp8
- Pd    ONCVPSP-3.2.3.1  r_core=   1.41052   1.46191   1.55175
- 46.00000  18.00000    170510                znucl, zion, pspdat
    8   11    2    4       600   0.00000      pspcod,pspxc,lmax,lloc,mmax,r2well
    5.99000000000000    7.00000000000000    0.00000000000000   rchrg,fchrg,qchrg
     nproj     2     2     2
     extension_switch     1
  pspatm : epsatm=   26.09224486
         --- l  ekb(1:nproj) -->
             0    7.845850   -2.282160
             1    3.261104   -0.686948
             2   -1.134855   -0.401224
 pspatm: atomic psp has been read  and splines computed

   1.90216449E+04                                ecore*ucvol(ha*bohr**3)
--------------------------------------------------------------------------------

_setup2: Arith. and geom. avg. npw (full set) are   41854.000   41853.989

================================================================================

     iter   Etot(hartree)      deltaE(h)  residm     vres2
 ETOT  1  -679.17923372571    -6.792E+02 1.487E-01 5.460E+06
 ETOT  2  -538.17281580925     1.410E+02 1.539E-01 2.576E+07
 ETOT  3  -671.15949080307    -1.330E+02 2.072E-01 6.968E+06
 ETOT  4  -712.85861766920    -4.170E+01 1.430E-01 1.450E+06
 ETOT  5  -722.00088351208    -9.142E+00 4.928E-02 4.035E+05
 ETOT  6  -722.51999555866    -5.191E-01 2.823E-02 4.120E+05
 ETOT  7  -720.40044761158     2.120E+00 2.064E-02 7.787E+05
 ETOT  8  -717.74797208038     2.652E+00 4.904E-03 1.163E+06
 ETOT  9  -718.49862141295    -7.506E-01 1.981E-03 1.032E+06
 ETOT 10  -711.06535040109     7.433E+00 4.156E-02 1.550E+06
 ETOT 11  -722.12272823723    -1.106E+01 5.623E-03 3.626E+05
 ETOT 12  -721.95063055216     1.721E-01 1.473E-02 3.284E+05
 ETOT 13  -724.97183416050    -3.021E+00 6.910E-03 9.117E+04
 ETOT 14  -725.23210478136    -2.603E-01 8.269E-04 1.094E+05
 ETOT 15  -724.11651394322     1.116E+00 5.279E-03 1.840E+05
 ETOT 16  -725.74130027412    -1.625E+00 4.606E-03 2.564E+04
 ETOT 17  -724.64493513240     1.096E+00 1.807E-02 3.250E+04
 ETOT 18  -725.73978753777    -1.095E+00 1.147E-02 5.200E+04
 ETOT 19  -725.72385003355     1.594E-02 3.003E-03 6.116E+04
 ETOT 20  -725.61015174688     1.137E-01 8.435E-04 7.418E+04
 ETOT 21  -726.15408067402    -5.439E-01 1.702E-03 6.317E+03
 ETOT 22  -726.12351335382     3.057E-02 4.339E-04 1.675E+04
 ETOT 23  -726.21978559832    -9.627E-02 2.020E-04 4.168E+03
 ETOT 24  -725.07054637069     1.149E+00 2.326E-03 7.383E+04
 ETOT 25  -725.86445549904    -7.939E-01 9.378E-04 4.554E+04
 ETOT 26  -726.25890827048    -3.945E-01 6.001E-04 1.705E+03
 ETOT 27  -726.26842007578    -9.512E-03 1.739E-04 7.605E+02
 ETOT 28  -726.27029075063    -1.871E-03 2.721E-04 9.529E+02
 ETOT 29  -726.25767272235     1.262E-02 1.167E-04 2.463E+03
 ETOT 30  -726.25068759523     6.985E-03 1.762E-04 3.521E+03
 ETOT 31  -726.04625978654     2.044E-01 2.406E-04 2.718E+04
 ETOT 32  -726.25847327376    -2.122E-01 1.487E-04 1.515E+03
 ETOT 33  -726.08046594681     1.780E-01 6.055E-04 2.417E+04
 ETOT 34  -726.21068490649    -1.302E-01 2.142E-04 7.985E+03
 ETOT 35  -725.96944726153     2.412E-01 9.809E-04 3.440E+04
 ETOT 36  -725.84812132168     1.213E-01 3.217E-04 4.712E+04
 ETOT 37  -725.89128177264    -4.316E-02 4.964E-04 3.217E+04
 ETOT 38  -725.89285254187    -1.571E-03 2.684E-04 4.011E+04
 ETOT 39  -726.01777126164    -1.249E-01 3.525E-04 2.513E+04
 ETOT 40  -725.34451889215     6.733E-01 7.486E-04 5.932E+04
 ETOT 41  -725.82299368549    -4.785E-01 2.053E-03 1.393E+04
 ETOT 42  -726.09233736631    -2.693E-01 6.089E-04 2.139E+04
 ETOT 43  -725.42490247241     6.674E-01 7.790E-03 7.157E+04
 ETOT 44  -725.80716976742    -3.823E-01 1.963E-03 4.530E+04
 ETOT 45  -725.99727574589    -1.901E-01 2.918E-04 2.641E+04
 ETOT 46  -726.05594550154    -5.867E-02 9.884E-05 2.270E+04
 ETOT 47  -726.06061429426    -4.669E-03 5.546E-05 2.159E+04
 ETOT 48  -726.04777472598     1.284E-02 3.762E-05 2.344E+04
 ETOT 49  -726.03038489686     1.739E-02 2.688E-04 2.462E+04
 ETOT 50  -725.93270963640     9.768E-02 8.609E-04 2.466E+04

 Cartesian components of stress tensor (hartree/bohr^3)
  sigma(1 1)= -5.04672445E-04  sigma(3 2)=  1.19303119E-04
  sigma(2 2)= -1.43279908E-03  sigma(3 1)= -1.55997793E-04
  sigma(3 3)= -4.29343462E-04  sigma(2 1)=  1.46337470E-05


 scprqt:  WARNING -
  nstep=   50 was not enough SCF cycles to converge;
  maximum energy difference=  9.768E-02 exceeds toldfe=  1.000E-04

 Integrated electronic density in atomic spheres:
 ------------------------------------------------
 Atom  Sphere_radius  Integrated_density
    1        2.00000          9.65347596
    2        2.00000          9.19312203
    3        2.00000          6.07127603
    4        2.00000          5.18211142
    5        2.00000          5.81837163
    6        2.00000          6.14750862
    7        2.00000         15.45383585
    8        2.00000         15.68860679
    9        2.00000         15.69242567
   10        2.00000         15.52272299
================================================================================

 ----iterations are completed or convergence reached----

 Mean square residual over all n,k,spin=   1.2906E-04; max=  8.6091E-04
 reduced coordinates (array xred) for   10 atoms
       0.000000000000      0.000000000000      0.000000000000
       0.500000000000      0.322044051240      0.173616000000
       0.309994470556      0.000000000000      0.107640000000
       0.690005529444      0.000000000000      0.239592000000
       0.190005529444      0.322044051240      0.281256000000
       0.809994470556      0.322044051240      0.065976000000
       0.190005529444      0.000000000000      0.427232000000
       0.423486314625      0.299453967376      0.531212000000
       0.423486314625     -0.299453967376      0.531212000000
       0.000000000000      0.000000000000      0.635188000000
 rms dE/dt=  2.6264E+00; max dE/dt=  6.1791E+00; dE/dt below (all hartree)
    1      -0.095913765733     -0.371869424683     -6.716773015337
    2      -0.372566312212      0.898318240955     -5.221401766899
    3       0.850521524314      0.259428765543      6.179069000871
    4       0.358458025364     -0.662731396907      0.331617201173
    5      -0.177556813219     -0.135345699850     -1.854794088332
    6      -0.608119425224      0.079353519023      5.804834278975
    7       1.225577794442     -0.136636342262      3.970596153203
    8      -0.695010484925      4.135804095493     -1.678400246825
    9      -0.997605004011     -4.093868399177     -0.687935326782
   10       0.440965622620      0.022627783274     -0.367724941485

 cartesian coordinates (angstrom) at end:
    1      0.00000000000000     0.00000000000000     0.00000000000000
    2      2.29684075616404     1.47936780433420     2.29684075616404
    3      1.42401586831569     0.00000000000000     1.42401586831569
    4      3.16966564401238     0.00000000000000     3.16966564401238
    5      0.87282488784835     1.47936780433420     3.72085662447973
    6      3.72085662447973     1.47936780433420     0.87282488784835
    7      0.87282488784835     0.00000000000000     5.65203592950807
    8      1.94536125421856     1.37559615372970     7.02763208323778
    9      1.94536125421856    -1.37559615372970     7.02763208323778
   10      0.00000000000000     0.00000000000000     8.40317531924662

 cartesian forces (hartree/bohr) at end:
    1      0.01022819116611     0.04278148774585     0.26770726960773
    2      0.04209766707598    -0.10354001092224     0.20789241967022
    3     -0.09879808406740    -0.02994201587441    -0.24812641104059
    4     -0.04211396521315     0.07628784340706    -0.01422833905268
    5      0.01963320539123     0.01553472191394     0.07322811252752
    6      0.06923262157472    -0.00919793162864    -0.23315702216477
    7     -0.14200334972587     0.01568339973310    -0.15978749713386
    8      0.07924218978285    -0.47648787915307     0.06617235886723
    9      0.11410009678284     0.47154369566373     0.02655376206554
   10     -0.05161857276730    -0.00266331088532     0.01374534665364
 frms,max,avg= 1.6300746E-01 4.7648788E-01   8.208E-04  5.666E-05  9.637E-04 h/b

 cartesian forces (eV/Angstrom) at end:
    1      0.52595469248587     2.19991236632461    13.76606013478681
    2      2.16474889662620    -5.32424098456701    10.69025714146663
    3     -5.08040132218458    -1.53968023239647   -12.75917198818903
    4     -2.16558698046582     3.92287830447616    -0.73165054988712
    5      1.00957992829368     0.79882745193201     3.76554062983760
    6      3.56008424157846    -0.47297662144560   -11.98941512746757
    7     -7.30210522311102     0.80647277214436    -8.21660277494450
    8      4.07479689050399   -24.50198983213830     3.40271921924926
    9      5.86726238700600    24.24774971631554     1.36544923092557
   10     -2.65433351073278    -0.13695294064530     0.70681408422235
 frms,max,avg= 8.3821801E+00 2.4501990E+01   4.221E-02  2.914E-03  4.955E-02 e/A
 length scales=  8.680800000000  8.680800000000 25.000000000000 bohr
              =  4.593681512328  4.593681512328 13.229430214750 angstroms
 prteigrs : about to open file manualGeomOpt3_o_DS1_EIG
 Fermi (or HOMO) energy (hartree) =   0.07102   Average Vxc (hartree)=  -0.27916
 Eigenvalues (hartree) for nkpt=   2  k points:
 kpt#   1, nband= 62, wtk=  0.50000, kpt=  0.1250  0.5000  0.5000 (reduced coord)
  -3.07459   -3.04361   -3.03266   -2.99694   -2.08525   -2.01233   -1.89805   -1.80594
  -1.80020   -1.79437   -1.77575   -1.77121   -1.76643   -1.76018   -1.75876   -1.74433
  -1.73633   -1.73183   -1.21689   -1.21391   -1.20727   -1.14699   -1.13980   -1.13651
  -0.59433   -0.57918   -0.51547   -0.47879   -0.17102   -0.14959   -0.14525   -0.10734
  -0.09725   -0.09182   -0.09042   -0.07669   -0.07329   -0.07167   -0.07040   -0.06404
  -0.05257   -0.02610   -0.02520   -0.01987   -0.01489   -0.00433   -0.00153    0.00372
   0.01169    0.01624    0.01967    0.02431    0.02541    0.03504    0.03829    0.04430
   0.05414    0.05783    0.06431    0.06608    0.06857    0.07721
 prteigrs : prtvol=0 or 1, do not print more k-points.


--------------------------------------------------------------------------------
 Components of total free energy (in Hartree) :

    Kinetic energy  =  2.74027010844472E+02
    Hartree energy  =  4.67645881947412E+02
    XC energy       = -1.18564611346091E+02
    Ewald energy    = -1.67018417511158E+02
    PspCore energy  =  1.00969117583759E+01
    Loc. psp. energy= -1.18887861142702E+03
    NL   psp  energy= -3.24087390239992E+00
    >>>>>>>>> Etotal= -7.25932709636404E+02

 Other information on the energy :
    Total energy(eV)= -1.97536336184461E+04 ; Band energy (Ha)=  -9.5394284640E+01
--------------------------------------------------------------------------------

 Cartesian components of stress tensor (hartree/bohr^3)
  sigma(1 1)= -5.04672445E-04  sigma(3 2)=  1.19303119E-04
  sigma(2 2)= -1.43279908E-03  sigma(3 1)= -1.55997793E-04
  sigma(3 3)= -4.29343462E-04  sigma(2 1)=  1.46337470E-05

-Cartesian components of stress tensor (GPa)         [Pressure=  2.3211E+01 GPa]
- sigma(1 1)= -1.48479735E+01  sigma(3 2)=  3.51001835E+00
- sigma(2 2)= -4.21543972E+01  sigma(3 1)= -4.58961275E+00
- sigma(3 3)= -1.26317186E+01  sigma(2 1)=  4.30539628E-01

================================================================================
== DATASET  2 ==================================================================
-   nproc =    1

 Exchange-correlation functional for the present dataset will be:
  GGA: Perdew-Burke-Ernzerhof functional - ixc=11
 Citation for XC functional:
  J.P.Perdew, K.Burke, M.Ernzerhof, PRL 77, 3865 (1996)

 Real(R)+Recip(G) space primitive vectors, cartesian coordinates (Bohr,Bohr^-1):
 R(1)=  8.6808000  0.0000000  0.0000000  G(1)=  0.1151968  0.0000000  0.0000000
 R(2)=  0.0000000  8.6808000  0.0000000  G(2)=  0.0000000  0.1151968  0.0000000
 R(3)=  0.0000000  0.0000000 25.5000000  G(3)=  0.0000000  0.0000000  0.0392157
 Unit cell volume ucvol=  1.9215854E+03 bohr^3
 Angles (23,13,12)=  9.00000000E+01  9.00000000E+01  9.00000000E+01 degrees

 getcut: wavevector=  0.0000  0.0000  0.0000  ngfft=  64  64 180
         ecut(hartree)=     60.000   => boxcut(ratio)=   2.02438

--- Pseudopotential description ------------------------------------------------
- pspini: atom type   1  psp file is ../../../Psps_for_tests/Ti.psp8
- pspatm: opening atomic psp file    ../../../Psps_for_tests/Ti.psp8
- Ti    ONCVPSP-3.2.3.1  r_core=   1.35825   1.31050   1.66360
- 22.00000  12.00000    170504                znucl, zion, pspdat
    8   11    2    4       600   0.00000      pspcod,pspxc,lmax,lloc,mmax,r2well
    5.99000000000000    2.50000000000000    0.00000000000000   rchrg,fchrg,qchrg
     nproj     2     2     2
     extension_switch     1
  pspatm : epsatm=   14.68144390
         --- l  ekb(1:nproj) -->
             0   11.362348    1.263639
             1    1.975402   -0.084666
             2   -5.186090   -1.477451
 pspatm: atomic psp has been read  and splines computed

- pspini: atom type   2  psp file is ../../../Psps_for_tests/O.psp8
- pspatm: opening atomic psp file    ../../../Psps_for_tests/O.psp8
- O     ONCVPSP-3.2.3.1  r_core=   1.35509   1.45563   1.26150
-  8.00000   6.00000    170504                znucl, zion, pspdat
    8   11    2    4       600   0.00000      pspcod,pspxc,lmax,lloc,mmax,r2well
    5.99000000000000    4.00000000000000    0.00000000000000   rchrg,fchrg,qchrg
     nproj     2     2     1
     extension_switch     1
  pspatm : epsatm=    6.19546011
         --- l  ekb(1:nproj) -->
             0    6.056735    0.824024
             1   -4.717130   -1.149271
             2   -1.331955
 pspatm: atomic psp has been read  and splines computed

- pspini: atom type   3  psp file is ../../../Psps_for_tests/Pd.psp8
- pspatm: opening atomic psp file    ../../../Psps_for_tests/Pd.psp8
- Pd    ONCVPSP-3.2.3.1  r_core=   1.41052   1.46191   1.55175
- 46.00000  18.00000    170510                znucl, zion, pspdat
    8   11    2    4       600   0.00000      pspcod,pspxc,lmax,lloc,mmax,r2well
    5.99000000000000    7.00000000000000    0.00000000000000   rchrg,fchrg,qchrg
     nproj     2     2     2
     extension_switch     1
  pspatm : epsatm=   26.09224486
         --- l  ekb(1:nproj) -->
             0    7.845850   -2.282160
             1    3.261104   -0.686948
             2   -1.134855   -0.401224
 pspatm: atomic psp has been read  and splines computed

--------------------------------------------------------------------------------

_setup2: Arith. and geom. avg. npw (full set) are   42680.000   42679.995

================================================================================

     iter   Etot(hartree)      deltaE(h)  residm     vres2
 ETOT  1  -678.45552358778    -6.785E+02 1.680E-01 5.618E+06
 ETOT  2  -524.59300192324     1.539E+02 1.722E-01 2.836E+07
 ETOT  3  -668.56102953442    -1.440E+02 2.367E-01 7.419E+06
 ETOT  4  -714.19979851585    -4.564E+01 1.504E-01 1.256E+06
 ETOT  5  -721.90530657153    -7.706E+00 5.903E-02 4.191E+05
 ETOT  6  -721.44170721593     4.636E-01 2.330E-02 5.499E+05
 ETOT  7  -722.87940427615    -1.438E+00 3.169E-03 3.668E+05
 ETOT  8  -720.90892527489     1.970E+00 8.595E-04 7.140E+05
 ETOT  9  -718.86908411843     2.040E+00 4.793E-04 1.023E+06
 ETOT 10  -709.64113033113     9.228E+00 4.808E-02 1.725E+06
 ETOT 11  -722.04363586693    -1.240E+01 1.048E-02 2.738E+05
 ETOT 12  -719.92345768808     2.120E+00 3.095E-02 4.285E+05
 ETOT 13  -724.78177230477    -4.858E+00 1.129E-02 9.584E+04
 ETOT 14  -724.96060376704    -1.788E-01 1.241E-03 1.196E+05
 ETOT 15  -719.01216789988     5.948E+00 7.350E-03 7.378E+05
 ETOT 16  -725.53761032505    -6.525E+00 9.855E-04 7.034E+04
 ETOT 17  -719.75184541441     5.786E+00 7.917E-03 5.672E+05
 ETOT 18  -723.74149067607    -3.990E+00 5.742E-03 2.024E+05
 ETOT 19  -725.69233695026    -1.951E+00 5.668E-03 2.018E+04
 ETOT 20  -725.75130931612    -5.897E-02 4.187E-03 2.120E+04
 ETOT 21  -725.87990407055    -1.286E-01 2.944E-03 2.786E+04
 ETOT 22  -726.04692638778    -1.670E-01 3.084E-03 4.789E+03
 ETOT 23  -726.22715319886    -1.802E-01 8.527E-04 1.088E+03
 ETOT 24  -725.72911834671     4.980E-01 1.108E-02 4.007E+04
 ETOT 25  -725.96536563302    -2.362E-01 5.583E-04 2.697E+04
 ETOT 26  -725.99087436452    -2.551E-02 2.880E-04 2.439E+04
 ETOT 27  -725.79540073072     1.955E-01 3.129E-03 4.970E+04
 ETOT 28  -725.94342836790    -1.480E-01 6.924E-04 3.817E+04
 ETOT 29  -726.18434878368    -2.409E-01 5.054E-04 9.144E+03
 ETOT 30  -726.11276906749     7.158E-02 1.990E-04 1.702E+04
 ETOT 31  -726.23496966430    -1.222E-01 1.853E-04 2.916E+03
 ETOT 32  -725.82454854302     4.104E-01 5.352E-04 5.053E+04
 ETOT 33  -726.24982052791    -4.253E-01 1.529E-04 1.202E+03
 ETOT 34  -726.24340046550     6.420E-03 1.951E-04 4.452E+02
 ETOT 35  -726.18167658222     6.172E-02 1.667E-04 8.778E+03
 ETOT 36  -726.26153421304    -7.986E-02 1.059E-04 3.253E+02
 ETOT 37  -726.24723823172     1.430E-02 2.222E-04 1.575E+03
 ETOT 38  -726.26377346444    -1.654E-02 1.318E-04 4.471E+01
 ETOT 39  -726.26334511043     4.284E-04 1.450E-04 1.187E+02
 ETOT 40  -726.26419932322    -8.542E-04 1.142E-04 7.675E+01
 ETOT 41  -726.26467977602    -4.805E-04 1.218E-04 2.447E+01
 ETOT 42  -726.26300771624     1.672E-03 1.316E-04 1.026E+02
 ETOT 43  -726.26384332426    -8.356E-04 1.211E-04 4.898E+01
 ETOT 44  -726.26485937562    -1.016E-03 1.452E-04 4.904E+01
 ETOT 45  -726.26421347286     6.459E-04 1.344E-04 1.243E+02
 ETOT 46  -726.25874818220     5.465E-03 1.656E-04 7.805E+02
 ETOT 47  -726.25404242898     4.706E-03 1.505E-04 1.340E+03
 ETOT 48  -726.25727506264    -3.233E-03 1.609E-04 9.718E+02
 ETOT 49  -726.25698178143     2.933E-04 1.453E-04 1.017E+03
 ETOT 50  -726.25689540886     8.637E-05 1.473E-04 1.023E+03

 Cartesian components of stress tensor (hartree/bohr^3)
  sigma(1 1)=  2.84664443E-04  sigma(3 2)= -2.57131686E-05
  sigma(2 2)= -7.66964716E-04  sigma(3 1)= -1.41738241E-04
  sigma(3 3)=  3.73167217E-04  sigma(2 1)= -8.23927493E-05

 Integrated electronic density in atomic spheres:
 ------------------------------------------------
 Atom  Sphere_radius  Integrated_density
    1        2.00000          9.54499376
    2        2.00000          9.40393443
    3        2.00000          6.02250733
    4        2.00000          5.83917961
    5        2.00000          5.81507324
    6        2.00000          6.07434814
    7        2.00000         15.28704158
    8        2.00000         15.52389722
    9        2.00000         15.51960975
   10        2.00000         15.26223471
================================================================================

 ----iterations are completed or convergence reached----

 Mean square residual over all n,k,spin=   2.3144E-06; max=  1.4731E-04
 reduced coordinates (array xred) for   10 atoms
       0.000000000000      0.000000000000      0.000000000000
       0.500000000000      0.322044051240      0.170211764706
       0.309994470556      0.000000000000      0.105529411765
       0.690005529444      0.000000000000      0.234894117647
       0.190005529444      0.322044051240      0.275741176471
       0.809994470556      0.322044051240      0.064682352941
       0.190005529444      0.000000000000      0.438462745098
       0.423486314625      0.299453967376      0.540403921569
       0.423486314625     -0.299453967376      0.540403921569
       0.000000000000      0.000000000000      0.642341176471
 rms dE/dt=  1.6259E+00; max dE/dt=  3.3226E+00; dE/dt below (all hartree)
    1      -0.095418325890     -0.505252451478     -3.567411865190
    2       0.042103577056      0.882573914457     -3.569001463172
    3       0.459180083082      0.013786817298      2.587267634294
    4       0.225526863206     -0.508087718082      1.203901173876
    5      -0.335595059205     -0.072900653268      0.874791856029
    6      -0.289005338476      0.282741987483      1.858182105782
    7       0.626922091405     -0.089974301256      3.321887061737
    8      -0.311165532066      3.322562156760     -1.813900568554
    9      -0.347129802829     -3.340705273637     -1.456231556951
   10       0.026955132315      0.001283906703      0.609303698601

 cartesian coordinates (angstrom) at end:
    1      0.00000000000000     0.00000000000000     0.00000000000000
    2      2.29684075616404     1.47936780433420     2.29684075616404
    3      1.42401586831569     0.00000000000000     1.42401586831569
    4      3.16966564401238     0.00000000000000     3.16966564401238
    5      0.87282488784835     1.47936780433420     3.72085662447972
    6      3.72085662447973     1.47936780433420     0.87282488784835
    7      0.87282488784835     0.00000000000000     5.91662453380307
    8      1.94536125421856     1.37559615372970     7.29222068753278
    9      1.94536125421856    -1.37559615372970     7.29222068753278
   10      0.00000000000000     0.00000000000000     8.66776392354162

 cartesian forces (hartree/bohr) at end:
    1      0.01101922573380     0.05804249492857     0.14008983030727
    2     -0.00482285137269    -0.10183060040074     0.14015216748304
    3     -0.05286871189548    -0.00174914510186    -0.10127015006465
    4     -0.02595261892299     0.05836910844388    -0.04702048495022
    5      0.03868680629260     0.00823697029839    -0.03411423719152
    6      0.03331982159895    -0.03273190823254    -0.07267856071126
    7     -0.07219204710919     0.01020379916070    -0.13007875506244
    8      0.03587260401414    -0.38290933073704     0.07132468141957
    9      0.04001557134010     0.38467746200059     0.05729844567043
   10     -0.00307779967923    -0.00030885035994    -0.02370293690023
 frms,max,avg= 1.1709691E-01 3.8467746E-01  -2.734E-05  1.609E-04 -1.913E-04 h/b

 cartesian forces (eV/Angstrom) at end:
    1      0.56663132201276     2.98466484205113     7.20370810664832
    2     -0.24800096805316    -5.23633956870897     7.20691361284032
    3     -2.71861824398115    -0.08994464996027    -5.20752005611064
    4     -1.33453721026156     3.00145998287487    -2.41789034843942
    5      1.98935539788320     0.42356200719608    -1.75422446061664
    6      1.71337397181462    -1.68314225353561    -3.73728154161430
    7     -3.71226400842506     0.52470040524227    -6.68891796278674
    8      1.84464331048499   -19.68998780205247     3.66766227512260
    9      2.05768323812377    19.78090875961868     2.94640429408126
   10     -0.15826680959842    -0.01588172272571    -1.21885391912474
 frms,max,avg= 6.0213645E+00 1.9780909E+01  -1.406E-03  8.276E-03 -9.838E-03 e/A
 length scales=  8.680800000000  8.680800000000 25.500000000000 bohr
              =  4.593681512328  4.593681512328 13.494018819045 angstroms
 prteigrs : about to open file manualGeomOpt3_o_DS2_EIG
 Fermi (or HOMO) energy (hartree) =   0.06417   Average Vxc (hartree)=  -0.27745
 Eigenvalues (hartree) for nkpt=   2  k points:
 kpt#   1, nband= 62, wtk=  0.50000, kpt=  0.1250  0.5000  0.5000 (reduced coord)
  -3.08137   -3.04994   -3.03019   -2.98727   -2.08870   -2.04502   -1.90468   -1.80810
  -1.80638   -1.80048   -1.78166   -1.77524   -1.76651   -1.76478   -1.75774   -1.73593
  -1.72776   -1.72334   -1.22016   -1.21871   -1.21033   -1.17791   -1.17154   -1.16690
  -0.59541   -0.58303   -0.51463   -0.50292   -0.17715   -0.15635   -0.15159   -0.10992
  -0.10387   -0.09595   -0.09384   -0.07908   -0.07721   -0.07669   -0.07606   -0.07056
  -0.05597   -0.03000   -0.02397   -0.02185   -0.01605   -0.01132   -0.00413   -0.00256
   0.00163    0.01330    0.01571    0.02128    0.02697    0.03262    0.03591    0.03917
   0.04385    0.05074    0.05521    0.05942    0.06123    0.06657
 prteigrs : prtvol=0 or 1, do not print more k-points.


--------------------------------------------------------------------------------
 Components of total free energy (in Hartree) :

    Kinetic energy  =  2.72467268983515E+02
    Hartree energy  =  4.55406538686399E+02
    XC energy       = -1.18258572836670E+02
    Ewald energy    = -1.71858503311843E+02
    PspCore energy  =  9.89893309644699E+00
    Loc. psp. energy= -1.17044183012909E+03
    NL   psp  energy= -3.47072989761987E+00
    >>>>>>>>> Etotal= -7.26256895408862E+02

 Other information on the energy :
    Total energy(eV)= -1.97624551619424E+04 ; Band energy (Ha)=  -9.6042608619E+01
--------------------------------------------------------------------------------

 Cartesian components of stress tensor (hartree/bohr^3)
  sigma(1 1)=  2.84664443E-04  sigma(3 2)= -2.57131686E-05
  sigma(2 2)= -7.66964716E-04  sigma(3 1)= -1.41738241E-04
  sigma(3 3)=  3.73167217E-04  sigma(2 1)= -8.23927493E-05

-Cartesian components of stress tensor (GPa)         [Pressure=  1.0703E+00 GPa]
- sigma(1 1)=  8.37511564E+00  sigma(3 2)= -7.56507410E-01
- sigma(2 2)= -2.25648772E+01  sigma(3 1)= -4.17008232E+00
- sigma(3 3)=  1.09789567E+01  sigma(2 1)= -2.42407797E+00

================================================================================
== DATASET  3 ==================================================================
-   nproc =    1

 Exchange-correlation functional for the present dataset will be:
  GGA: Perdew-Burke-Ernzerhof functional - ixc=11
 Citation for XC functional:
  J.P.Perdew, K.Burke, M.Ernzerhof, PRL 77, 3865 (1996)

 Real(R)+Recip(G) space primitive vectors, cartesian coordinates (Bohr,Bohr^-1):
 R(1)=  8.6808000  0.0000000  0.0000000  G(1)=  0.1151968  0.0000000  0.0000000
 R(2)=  0.0000000  8.6808000  0.0000000  G(2)=  0.0000000  0.1151968  0.0000000
 R(3)=  0.0000000  0.0000000 26.0000000  G(3)=  0.0000000  0.0000000  0.0384615
 Unit cell volume ucvol=  1.9592635E+03 bohr^3
 Angles (23,13,12)=  9.00000000E+01  9.00000000E+01  9.00000000E+01 degrees

 getcut: wavevector=  0.0000  0.0000  0.0000  ngfft=  64  64 192
         ecut(hartree)=     60.000   => boxcut(ratio)=   2.11436

--- Pseudopotential description ------------------------------------------------
- pspini: atom type   1  psp file is ../../../Psps_for_tests/Ti.psp8
- pspatm: opening atomic psp file    ../../../Psps_for_tests/Ti.psp8
- Ti    ONCVPSP-3.2.3.1  r_core=   1.35825   1.31050   1.66360
- 22.00000  12.00000    170504                znucl, zion, pspdat
    8   11    2    4       600   0.00000      pspcod,pspxc,lmax,lloc,mmax,r2well
    5.99000000000000    2.50000000000000    0.00000000000000   rchrg,fchrg,qchrg
     nproj     2     2     2
     extension_switch     1
  pspatm : epsatm=   14.68144390
         --- l  ekb(1:nproj) -->
             0   11.362348    1.263639
             1    1.975402   -0.084666
             2   -5.186090   -1.477451
 pspatm: atomic psp has been read  and splines computed

- pspini: atom type   2  psp file is ../../../Psps_for_tests/O.psp8
- pspatm: opening atomic psp file    ../../../Psps_for_tests/O.psp8
- O     ONCVPSP-3.2.3.1  r_core=   1.35509   1.45563   1.26150
-  8.00000   6.00000    170504                znucl, zion, pspdat
    8   11    2    4       600   0.00000      pspcod,pspxc,lmax,lloc,mmax,r2well
    5.99000000000000    4.00000000000000    0.00000000000000   rchrg,fchrg,qchrg
     nproj     2     2     1
     extension_switch     1
  pspatm : epsatm=    6.19546011
         --- l  ekb(1:nproj) -->
             0    6.056735    0.824024
             1   -4.717130   -1.149271
             2   -1.331955
 pspatm: atomic psp has been read  and splines computed

- pspini: atom type   3  psp file is ../../../Psps_for_tests/Pd.psp8
- pspatm: opening atomic psp file    ../../../Psps_for_tests/Pd.psp8
- Pd    ONCVPSP-3.2.3.1  r_core=   1.41052   1.46191   1.55175
- 46.00000  18.00000    170510                znucl, zion, pspdat
    8   11    2    4       600   0.00000      pspcod,pspxc,lmax,lloc,mmax,r2well
    5.99000000000000    7.00000000000000    0.00000000000000   rchrg,fchrg,qchrg
     nproj     2     2     2
     extension_switch     1
  pspatm : epsatm=   26.09224486
         --- l  ekb(1:nproj) -->
             0    7.845850   -2.282160
             1    3.261104   -0.686948
             2   -1.134855   -0.401224
 pspatm: atomic psp has been read  and splines computed

--------------------------------------------------------------------------------

_setup2: Arith. and geom. avg. npw (full set) are   43504.000   43503.982

================================================================================

     iter   Etot(hartree)      deltaE(h)  residm     vres2
 ETOT  1  -675.75723265227    -6.758E+02 1.565E-01 6.581E+06
 ETOT  2  -517.71708316538     1.580E+02 1.645E-01 3.230E+07
 ETOT  3  -655.42150209743    -1.377E+02 2.537E-01 1.015E+07
 ETOT  4  -714.21345780096    -5.879E+01 1.864E-01 1.359E+06
 ETOT  5  -722.20934436597    -7.996E+00 5.950E-02 4.226E+05
 ETOT  6  -719.58500640700     2.624E+00 1.075E-02 8.749E+05
 ETOT  7  -721.34891172854    -1.764E+00 1.084E-02 6.210E+05
 ETOT  8  -720.95986393904     3.890E-01 7.042E-04 7.143E+05
 ETOT  9  -720.89669933523     6.316E-02 2.869E-04 7.950E+05
 ETOT 10  -721.47432575084    -5.776E-01 7.675E-03 5.697E+05
 ETOT 11  -721.73417429262    -2.598E-01 3.524E-03 5.688E+05
 ETOT 12  -723.74749290198    -2.013E+00 3.724E-03 1.588E+05
 ETOT 13  -725.36986574887    -1.622E+00 6.681E-03 1.777E+04
 ETOT 14  -724.98846242562     3.814E-01 9.206E-03 8.901E+04
 ETOT 15  -725.33316332234    -3.447E-01 3.690E-03 3.363E+04
 ETOT 16  -725.77398807253    -4.408E-01 3.159E-03 3.822E+04
 ETOT 17  -724.44250836206     1.331E+00 2.273E-02 1.998E+05
 ETOT 18  -724.88580943731    -4.433E-01 3.190E-03 1.899E+05
 ETOT 19  -725.57725815135    -6.914E-01 1.686E-03 1.994E+04
 ETOT 20  -724.61970359000     9.576E-01 3.034E-03 1.829E+05
 ETOT 21  -724.87482543464    -2.551E-01 9.185E-04 1.788E+05
 ETOT 22  -725.83362095807    -9.588E-01 1.470E-03 4.333E+04
 ETOT 23  -725.34857769759     4.850E-01 5.032E-04 1.227E+05
 ETOT 24  -726.06956140291    -7.210E-01 6.690E-04 7.931E+03
 ETOT 25  -725.44917229047     6.204E-01 1.245E-03 9.024E+04
 ETOT 26  -725.33991633281     1.093E-01 4.784E-04 1.000E+05
 ETOT 27  -726.14157139979    -8.017E-01 8.390E-04 2.575E+03
 ETOT 28  -725.96855430723     1.730E-01 1.029E-03 2.274E+04
 ETOT 29  -726.18121481876    -2.127E-01 2.306E-04 7.242E+03
 ETOT 30  -726.01951527783     1.617E-01 6.879E-04 2.284E+04
 ETOT 31  -726.17885852773    -1.593E-01 2.730E-04 5.078E+03
 ETOT 32  -726.02935972947     1.495E-01 5.955E-04 2.512E+04
 ETOT 33  -726.19052373457    -1.612E-01 3.800E-04 3.928E+03
 ETOT 34  -726.12623781249     6.429E-02 1.694E-04 1.371E+04
 ETOT 35  -726.23633168680    -1.101E-01 1.216E-04 1.529E+03
 ETOT 36  -726.06071304322     1.756E-01 4.135E-04 2.185E+04
 ETOT 37  -726.24198452306    -1.813E-01 7.482E-05 1.172E+03
 ETOT 38  -726.24551489225    -3.530E-03 2.266E-04 7.224E+02
 ETOT 39  -726.24712744591    -1.613E-03 7.268E-05 4.462E+02
 ETOT 40  -726.24895936439    -1.832E-03 1.401E-04 2.301E+02
 ETOT 41  -726.24697734959     1.982E-03 7.172E-05 3.661E+02
 ETOT 42  -726.25034426676    -3.367E-03 1.769E-04 2.799E+01
 ETOT 43  -726.24783289128     2.511E-03 8.961E-05 3.412E+02
 ETOT 44  -726.23436960552     1.346E-02 1.400E-04 1.097E+03
 ETOT 45  -726.24924077586    -1.487E-02 7.588E-05 2.112E+02
 ETOT 46  -726.24364964501     5.591E-03 1.193E-04 9.637E+02
 ETOT 47  -726.24298652043     6.631E-04 6.832E-05 1.067E+03
 ETOT 48  -726.23165869536     1.133E-02 1.162E-04 2.535E+03
 ETOT 49  -726.23820351441    -6.545E-03 5.782E-05 1.544E+03
 ETOT 50  -726.22383204718     1.437E-02 1.120E-04 3.548E+03

 Cartesian components of stress tensor (hartree/bohr^3)
  sigma(1 1)=  2.56449151E-04  sigma(3 2)= -1.80421953E-05
  sigma(2 2)= -8.07794688E-04  sigma(3 1)= -1.41859823E-04
  sigma(3 3)=  3.82028415E-04  sigma(2 1)= -7.50230411E-05


 scprqt:  WARNING -
  nstep=   50 was not enough SCF cycles to converge;
  maximum energy difference=  1.437E-02 exceeds toldfe=  1.000E-04

 Integrated electronic density in atomic spheres:
 ------------------------------------------------
 Atom  Sphere_radius  Integrated_density
    1        2.00000          9.61036555
    2        2.00000          9.40927808
    3        2.00000          6.03208320
    4        2.00000          5.83540929
    5        2.00000          5.76205300
    6        2.00000          6.07501862
    7        2.00000         15.30921501
    8        2.00000         15.49044259
    9        2.00000         15.48249623
   10        2.00000         15.26008498
================================================================================

 ----iterations are completed or convergence reached----

 Mean square residual over all n,k,spin=   2.0392E-06; max=  1.1196E-04
 reduced coordinates (array xred) for   10 atoms
       0.000000000000      0.000000000000      0.000000000000
       0.500000000000      0.322044051240      0.166938461538
       0.309994470556      0.000000000000      0.103500000000
       0.690005529444      0.000000000000      0.230376923077
       0.190005529444      0.322044051240      0.270438461538
       0.809994470556      0.322044051240      0.063438461538
       0.190005529444      0.000000000000      0.449261538462
       0.423486314625      0.299453967376      0.549242307692
       0.423486314625     -0.299453967376      0.549242307692
       0.000000000000      0.000000000000      0.649219230769
 rms dE/dt=  1.8300E+00; max dE/dt=  3.5232E+00; dE/dt below (all hartree)
    1      -0.083792156141     -0.525603708563     -3.984388497539
    2       0.100005930415      0.811579167284     -4.868506324657
    3       0.497284504137      0.023675935840      3.122012180370
    4       0.230237897569     -0.499572407857      1.562746504267
    5      -0.408860850138     -0.073408141506      1.495702327314
    6      -0.331033277866      0.333245416797      2.229711582280
    7       0.664980389438     -0.048345246997      3.523184992349
    8      -0.331653629475      3.139235081080     -1.930393896889
    9      -0.354004905549     -3.166840334952     -1.609163189436
   10       0.018798826513      0.002278055524      0.546950856003

 cartesian coordinates (angstrom) at end:
    1      0.00000000000000     0.00000000000000     0.00000000000000
    2      2.29684075616404     1.47936780433420     2.29684075616404
    3      1.42401586831569     0.00000000000000     1.42401586831569
    4      3.16966564401238     0.00000000000000     3.16966564401238
    5      0.87282488784835     1.47936780433420     3.72085662447973
    6      3.72085662447973     1.47936780433420     0.87282488784835
    7      0.87282488784835     0.00000000000000     6.18121313809807
    8      1.94536125421856     1.37559615372971     7.55680929182778
    9      1.94536125421856    -1.37559615372971     7.55680929182778
   10      0.00000000000000     0.00000000000000     8.93235252783662

 cartesian forces (hartree/bohr) at end:
    1      0.00967519457092     0.06050457218556     0.15358362119019
    2     -0.01149774877018    -0.09353455737022     0.18758815300242
    3     -0.05726295171494    -0.00277066101910    -0.11973948180628
    4     -0.02650004892163     0.05750585078820    -0.05976772503310
    5      0.04712205361581     0.00841310975612    -0.05718910284262
    6      0.03815656975815    -0.03843206100043    -0.08542022803361
    7     -0.07658097370608     0.00552594561128    -0.13516920534397
    8      0.03822803225110    -0.36167296786183     0.07458382885751
    9      0.04080282674862     0.36476646353062     0.06222880164776
   10     -0.00214295383178    -0.00030569462020    -0.02069866163832
 frms,max,avg= 1.1739278E-01 3.6476646E-01  -2.261E-05  4.327E-05 -3.379E-04 h/b

 cartesian forces (eV/Angstrom) at end:
    1      0.49751846662284     3.11126993434443     7.89758667413283
    2     -0.59123796382836    -4.80973991974823     9.64616985780320
    3     -2.94457912165906    -0.14247310600817    -6.15725120004665
    4     -1.36268719024495     2.95706949315363    -3.07337973350753
    5      2.42311321877983     0.43261946152231    -2.94078166027973
    6      1.96208954130207    -1.97625586937147    -4.39248436383861
    7     -3.93795166923604     0.28415552441993    -6.95067941884018
    8      1.96576429013043   -18.59797020831047     3.83525436062918
    9      2.09816553548907    18.75704413807568     3.19993337070777
   10     -0.11019510735582    -0.01571944807763    -1.06436788676028
 frms,max,avg= 6.0365791E+00 1.8757044E+01  -1.163E-03  2.225E-03 -1.738E-02 e/A
 length scales=  8.680800000000  8.680800000000 26.000000000000 bohr
              =  4.593681512328  4.593681512328 13.758607423340 angstroms
 prteigrs : about to open file manualGeomOpt3_o_DS3_EIG
 Fermi (or HOMO) energy (hartree) =   0.05646   Average Vxc (hartree)=  -0.27422
 Eigenvalues (hartree) for nkpt=   2  k points:
 kpt#   1, nband= 62, wtk=  0.50000, kpt=  0.1250  0.5000  0.5000 (reduced coord)
  -3.08861   -3.05724   -3.03739   -2.99505   -2.09495   -2.04890   -1.91214   -1.81502
  -1.81401   -1.80710   -1.78834   -1.78248   -1.77376   -1.77245   -1.76491   -1.74392
  -1.73529   -1.73074   -1.22622   -1.22452   -1.21714   -1.18183   -1.17595   -1.17035
  -0.60147   -0.58957   -0.52005   -0.50527   -0.18381   -0.16347   -0.15804   -0.11540
  -0.11010   -0.10183   -0.10079   -0.08486   -0.08394   -0.08321   -0.08279   -0.07671
  -0.06281   -0.03563   -0.02974   -0.02872   -0.02086   -0.01702   -0.01049   -0.00347
  -0.00213    0.00688    0.00850    0.01677    0.02052    0.02593    0.02880    0.03404
   0.03679    0.04498    0.04863    0.05185    0.05397    0.05770
 prteigrs : prtvol=0 or 1, do not print more k-points.


--------------------------------------------------------------------------------
 Components of total free energy (in Hartree) :

    Kinetic energy  =  2.72571632776649E+02
    Hartree energy  =  4.50568099552238E+02
    XC energy       = -1.18254822236482E+02
    Ewald energy    = -1.74613525432569E+02
    PspCore energy  =  9.70856899843839E+00
    Loc. psp. energy= -1.16270258365535E+03
    NL   psp  energy= -3.50120205009945E+00
    >>>>>>>>> Etotal= -7.26223832047176E+02

 Other information on the energy :
    Total energy(eV)= -1.97615554621159E+04 ; Band energy (Ha)=  -9.6787391852E+01
--------------------------------------------------------------------------------

 Cartesian components of stress tensor (hartree/bohr^3)
  sigma(1 1)=  2.56449151E-04  sigma(3 2)= -1.80421953E-05
  sigma(2 2)= -8.07794688E-04  sigma(3 1)= -1.41859823E-04
  sigma(3 3)=  3.82028415E-04  sigma(2 1)= -7.50230411E-05

-Cartesian components of stress tensor (GPa)         [Pressure=  1.6605E+00 GPa]
- sigma(1 1)=  7.54499324E+00  sigma(3 2)= -5.30819622E-01
- sigma(2 2)= -2.37661362E+01  sigma(3 1)= -4.17365940E+00
- sigma(3 3)=  1.12396621E+01  sigma(2 1)= -2.20725370E+00

================================================================================
== DATASET  4 ==================================================================
-   nproc =    1

 Exchange-correlation functional for the present dataset will be:
  GGA: Perdew-Burke-Ernzerhof functional - ixc=11
 Citation for XC functional:
  J.P.Perdew, K.Burke, M.Ernzerhof, PRL 77, 3865 (1996)

 Real(R)+Recip(G) space primitive vectors, cartesian coordinates (Bohr,Bohr^-1):
 R(1)=  8.6808000  0.0000000  0.0000000  G(1)=  0.1151968  0.0000000  0.0000000
 R(2)=  0.0000000  8.6808000  0.0000000  G(2)=  0.0000000  0.1151968  0.0000000
 R(3)=  0.0000000  0.0000000 26.5000000  G(3)=  0.0000000  0.0000000  0.0377358
 Unit cell volume ucvol=  1.9969416E+03 bohr^3
 Angles (23,13,12)=  9.00000000E+01  9.00000000E+01  9.00000000E+01 degrees

 getcut: wavevector=  0.0000  0.0000  0.0000  ngfft=  64  64 192
         ecut(hartree)=     60.000   => boxcut(ratio)=   2.07785

--- Pseudopotential description ------------------------------------------------
- pspini: atom type   1  psp file is ../../../Psps_for_tests/Ti.psp8
- pspatm: opening atomic psp file    ../../../Psps_for_tests/Ti.psp8
- Ti    ONCVPSP-3.2.3.1  r_core=   1.35825   1.31050   1.66360
- 22.00000  12.00000    170504                znucl, zion, pspdat
    8   11    2    4       600   0.00000      pspcod,pspxc,lmax,lloc,mmax,r2well
    5.99000000000000    2.50000000000000    0.00000000000000   rchrg,fchrg,qchrg
     nproj     2     2     2
     extension_switch     1
  pspatm : epsatm=   14.68144390
         --- l  ekb(1:nproj) -->
             0   11.362348    1.263639
             1    1.975402   -0.084666
             2   -5.186090   -1.477451
 pspatm: atomic psp has been read  and splines computed

- pspini: atom type   2  psp file is ../../../Psps_for_tests/O.psp8
- pspatm: opening atomic psp file    ../../../Psps_for_tests/O.psp8
- O     ONCVPSP-3.2.3.1  r_core=   1.35509   1.45563   1.26150
-  8.00000   6.00000    170504                znucl, zion, pspdat
    8   11    2    4       600   0.00000      pspcod,pspxc,lmax,lloc,mmax,r2well
    5.99000000000000    4.00000000000000    0.00000000000000   rchrg,fchrg,qchrg
     nproj     2     2     1
     extension_switch     1
  pspatm : epsatm=    6.19546011
         --- l  ekb(1:nproj) -->
             0    6.056735    0.824024
             1   -4.717130   -1.149271
             2   -1.331955
 pspatm: atomic psp has been read  and splines computed

- pspini: atom type   3  psp file is ../../../Psps_for_tests/Pd.psp8
- pspatm: opening atomic psp file    ../../../Psps_for_tests/Pd.psp8
- Pd    ONCVPSP-3.2.3.1  r_core=   1.41052   1.46191   1.55175
- 46.00000  18.00000    170510                znucl, zion, pspdat
    8   11    2    4       600   0.00000      pspcod,pspxc,lmax,lloc,mmax,r2well
    5.99000000000000    7.00000000000000    0.00000000000000   rchrg,fchrg,qchrg
     nproj     2     2     2
     extension_switch     1
  pspatm : epsatm=   26.09224486
         --- l  ekb(1:nproj) -->
             0    7.845850   -2.282160
             1    3.261104   -0.686948
             2   -1.134855   -0.401224
 pspatm: atomic psp has been read  and splines computed

--------------------------------------------------------------------------------

_setup2: Arith. and geom. avg. npw (full set) are   44360.000   44359.978

================================================================================

     iter   Etot(hartree)      deltaE(h)  residm     vres2
 ETOT  1  -673.63102249606    -6.736E+02 1.611E-01 7.036E+06
 ETOT  2  -500.34655905488     1.733E+02 1.573E-01 3.598E+07
 ETOT  3  -655.01346136586    -1.547E+02 2.366E-01 1.041E+07
 ETOT  4  -715.17335740187    -6.016E+01 1.710E-01 1.269E+06
 ETOT  5  -722.20460566358    -7.031E+00 3.799E-02 4.486E+05
 ETOT  6  -719.56020394179     2.644E+00 3.951E-02 8.746E+05
 ETOT  7  -721.88490097898    -2.325E+00 4.647E-03 5.643E+05
 ETOT  8  -722.64439528866    -7.595E-01 8.436E-04 4.944E+05
 ETOT  9  -720.99686816267     1.648E+00 2.547E-04 7.795E+05
 ETOT 10  -716.03159265624     4.965E+00 1.100E-02 1.455E+06
 ETOT 11  -714.99582956315     1.036E+00 1.525E-02 1.406E+06
 ETOT 12  -709.92777488045     5.068E+00 1.177E-02 1.919E+06
 ETOT 13  -701.09091232670     8.837E+00 2.300E-01 1.842E+06
 ETOT 14  -724.16751708671    -2.308E+01 8.022E-02 1.270E+05
 ETOT 15  -724.21280734405    -4.529E-02 5.304E-02 1.511E+05
 ETOT 16  -725.07064767403    -8.578E-01 1.367E-02 1.236E+05
 ETOT 17  -723.50136712906     1.569E+00 2.463E-02 2.488E+05
 ETOT 18  -725.01316937173    -1.512E+00 5.579E-03 1.360E+05
 ETOT 19  -725.26905596485    -2.559E-01 4.930E-03 9.451E+04
 ETOT 20  -725.15788687700     1.112E-01 1.692E-03 1.501E+05
 ETOT 21  -725.24317110529    -8.528E-02 8.274E-04 1.037E+05
 ETOT 22  -725.38304145062    -1.399E-01 3.220E-04 9.596E+04
 ETOT 23  -713.27939721331     1.210E+01 7.779E-02 1.237E+06
 ETOT 24  -724.28223619022    -1.100E+01 2.803E-02 1.661E+05
 ETOT 25  -725.94365295160    -1.661E+00 8.973E-03 3.366E+04
 ETOT 26  -726.09729067784    -1.536E-01 2.802E-03 6.465E+03
 ETOT 27  -726.10727838483    -9.988E-03 2.142E-03 1.425E+04
 ETOT 28  -726.19922333291    -9.194E-02 7.127E-04 1.972E+03
 ETOT 29  -726.20640294961    -7.180E-03 1.515E-03 2.903E+03
 ETOT 30  -726.21349373419    -7.091E-03 4.403E-04 2.247E+03
 ETOT 31  -726.16975189589     4.374E-02 6.912E-04 6.240E+03
 ETOT 32  -726.08522153270     8.453E-02 2.271E-04 1.632E+04
 ETOT 33  -726.06281860858     2.240E-02 3.991E-04 1.763E+04
 ETOT 34  -725.36669885850     6.961E-01 9.660E-04 5.168E+04
 ETOT 35  -726.02920344159    -6.625E-01 3.530E-04 2.831E+04
 ETOT 36  -726.18692769159    -1.577E-01 1.611E-04 4.776E+03
 ETOT 37  -726.17564434273     1.128E-02 6.174E-05 4.883E+03
 ETOT 38  -726.19348960652    -1.785E-02 7.674E-05 3.980E+03
 ETOT 39  -726.22083239971    -2.734E-02 4.496E-05 1.337E+03
 ETOT 40  -726.21774608018     3.086E-03 6.172E-05 1.966E+03
 ETOT 41  -725.94061840306     2.771E-01 1.168E-04 3.680E+04
 ETOT 42  -726.15565251477    -2.150E-01 5.761E-05 1.128E+04
 ETOT 43  -726.19753245495    -4.188E-02 4.765E-05 4.074E+03
 ETOT 44  -726.21544268280    -1.791E-02 3.782E-05 3.213E+03
 ETOT 45  -726.23900804867    -2.357E-02 3.081E-05 1.095E+02
 ETOT 46  -726.23797609333     1.032E-03 1.872E-05 2.375E+02
 ETOT 47  -726.23574829514     2.228E-03 2.842E-05 6.126E+02
 ETOT 48  -726.22356120337     1.219E-02 2.615E-05 2.209E+03
 ETOT 49  -726.23431937268    -1.076E-02 2.039E-05 7.648E+02
 ETOT 50  -726.23218080744     2.139E-03 2.150E-05 1.057E+03

 Cartesian components of stress tensor (hartree/bohr^3)
  sigma(1 1)=  2.85145891E-04  sigma(3 2)= -7.56250462E-06
  sigma(2 2)= -7.46386143E-04  sigma(3 1)= -1.30997067E-04
  sigma(3 3)=  3.19990073E-04  sigma(2 1)= -7.75062225E-05


 scprqt:  WARNING -
  nstep=   50 was not enough SCF cycles to converge;
  maximum energy difference=  2.139E-03 exceeds toldfe=  1.000E-04

 Integrated electronic density in atomic spheres:
 ------------------------------------------------
 Atom  Sphere_radius  Integrated_density
    1        2.00000          9.56313646
    2        2.00000          9.40498124
    3        2.00000          6.01396174
    4        2.00000          5.80644579
    5        2.00000          5.75691684
    6        2.00000          6.07194276
    7        2.00000         15.31447845
    8        2.00000         15.52322347
    9        2.00000         15.51899741
   10        2.00000         15.26063441
================================================================================

 ----iterations are completed or convergence reached----

 Mean square residual over all n,k,spin=   5.7295E-07; max=  2.1501E-05
 reduced coordinates (array xred) for   10 atoms
       0.000000000000      0.000000000000      0.000000000000
       0.500000000000      0.322044051240      0.163788679245
       0.309994470556      0.000000000000      0.101547169811
       0.690005529444      0.000000000000      0.226030188679
       0.190005529444      0.322044051240      0.265335849057
       0.809994470556      0.322044051240      0.062241509434
       0.190005529444      0.000000000000      0.459652830189
       0.423486314625      0.299453967376      0.557747169811
       0.423486314625     -0.299453967376      0.557747169811
       0.000000000000      0.000000000000      0.655837735849
 rms dE/dt=  1.7039E+00; max dE/dt=  3.2261E+00; dE/dt below (all hartree)
    1      -0.107524641724     -0.500262040077     -3.933086688478
    2       0.114961065387      0.850042824403     -4.011899848516
    3       0.482455337733      0.023899677644      2.880310458064
    4       0.237285136972     -0.505035608317      1.297185855273
    5      -0.423175576771     -0.093920547478      1.349584890081
    6      -0.308261286558      0.274402834750      2.161007190345
    7       0.655129246604     -0.029253374469      3.071311333365
    8      -0.333800938820      3.226120031214     -1.763378445531
    9      -0.340823284132     -3.242718328708     -1.619721126843
   10       0.023062208916     -0.000349340632      0.643531845144

 cartesian coordinates (angstrom) at end:
    1      0.00000000000000     0.00000000000000     0.00000000000000
    2      2.29684075616404     1.47936780433420     2.29684075616404
    3      1.42401586831569     0.00000000000000     1.42401586831569
    4      3.16966564401238     0.00000000000000     3.16966564401238
    5      0.87282488784835     1.47936780433420     3.72085662447972
    6      3.72085662447973     1.47936780433420     0.87282488784835
    7      0.87282488784835     0.00000000000000     6.44580174239307
    8      1.94536125421856     1.37559615372970     7.82139789612278
    9      1.94536125421856    -1.37559615372970     7.82139789612278
   10      0.00000000000000     0.00000000000000     9.19694113213162

 cartesian forces (hartree/bohr) at end:
    1      0.01237850987057     0.05766227224569     0.14870080131201
    2     -0.01325112185817    -0.09788846783361     0.15167488282290
    3     -0.05558526990285    -0.00271945728630    -0.10840852497258
    4     -0.02734245809270     0.05821217182169    -0.04866797392386
    5      0.04874047363513     0.01085305044591    -0.05064529599209
    6      0.03550272017767    -0.03157660836761    -0.08126500543604
    7     -0.07547674406080     0.00340360189172    -0.11561610517262
    8      0.03844480526922    -0.37160485420476     0.06682501855929
    9      0.03925375666905     0.37358434033050     0.06140398766541
   10     -0.00266467170712     0.00007395095676    -0.02400178486242
 frms,max,avg= 1.1578663E-01 3.7358434E-01   7.980E-06 -3.371E-05 -2.824E-04 h/b

 cartesian forces (eV/Angstrom) at end:
    1      0.63652851679024     2.96511300722532     7.64650200180066
    2     -0.68140002555856    -5.03362697872996     7.79943540919232
    3     -2.85830926150131    -0.13984010442487    -5.57459002171600
    4     -1.40600560787372     2.99338997797173    -2.50260763055004
    5      2.50633571528449     0.55808624585800    -2.60428561089420
    6      1.82562312047215    -1.62373435087511    -4.17881424484847
    7     -3.88116990263773     0.17502023155703    -5.94521866622539
    8      1.97691120596650   -19.10868829545434     3.43628032717740
    9      2.01850915596785    19.21047755610072     3.15751973398512
   10     -0.13702291690992     0.00380271077148    -1.23422129792140
 frms,max,avg= 5.9539872E+00 1.9210478E+01   4.104E-04 -1.733E-03 -1.452E-02 e/A
 length scales=  8.680800000000  8.680800000000 26.500000000000 bohr
              =  4.593681512328  4.593681512328 14.023196027635 angstroms
 prteigrs : about to open file manualGeomOpt3_o_DS4_EIG
 Fermi (or HOMO) energy (hartree) =   0.05051   Average Vxc (hartree)=  -0.27112
 Eigenvalues (hartree) for nkpt=   2  k points:
 kpt#   1, nband= 62, wtk=  0.50000, kpt=  0.1250  0.5000  0.5000 (reduced coord)
  -3.09459   -3.06316   -3.03979   -2.99954   -2.09960   -2.05276   -1.91835   -1.82031
  -1.81875   -1.81287   -1.79393   -1.78747   -1.77918   -1.77569   -1.76746   -1.74864
  -1.73963   -1.73550   -1.23079   -1.22873   -1.22237   -1.18560   -1.18017   -1.17397
  -0.60564   -0.59287   -0.52521   -0.50836   -0.18923   -0.16949   -0.16378   -0.11988
  -0.11343   -0.10603   -0.10557   -0.08979   -0.08924   -0.08829   -0.08767   -0.08013
  -0.06780   -0.03935   -0.03451   -0.03400   -0.02553   -0.02193   -0.01604   -0.00655
  -0.00288    0.00251    0.00331    0.01285    0.01609    0.02087    0.02315    0.03039
   0.03182    0.04023    0.04365    0.04563    0.04793    0.05169
 prteigrs : prtvol=0 or 1, do not print more k-points.


--------------------------------------------------------------------------------
 Components of total free energy (in Hartree) :

    Kinetic energy  =  2.72405248440661E+02
    Hartree energy  =  4.50250212293052E+02
    XC energy       = -1.18231063822760E+02
    Ewald energy    = -1.75383893441314E+02
    PspCore energy  =  9.52538845129805E+00
    Loc. psp. energy= -1.16138491403508E+03
    NL   psp  energy= -3.41315869330086E+00
    >>>>>>>>> Etotal= -7.26232180807440E+02

 Other information on the energy :
    Total energy(eV)= -1.97617826434362E+04 ; Band energy (Ha)=  -9.7337058366E+01
--------------------------------------------------------------------------------

 Cartesian components of stress tensor (hartree/bohr^3)
  sigma(1 1)=  2.85145891E-04  sigma(3 2)= -7.56250462E-06
  sigma(2 2)= -7.46386143E-04  sigma(3 1)= -1.30997067E-04
  sigma(3 3)=  3.19990073E-04  sigma(2 1)= -7.75062225E-05

-Cartesian components of stress tensor (GPa)         [Pressure=  1.3852E+00 GPa]
- sigma(1 1)=  8.38928034E+00  sigma(3 2)= -2.22496530E-01
- sigma(2 2)= -2.19594348E+01  sigma(3 1)= -3.85406613E+00
- sigma(3 3)=  9.41443140E+00  sigma(2 1)= -2.28031141E+00

================================================================================
== DATASET  5 ==================================================================
-   nproc =    1

 Exchange-correlation functional for the present dataset will be:
  GGA: Perdew-Burke-Ernzerhof functional - ixc=11
 Citation for XC functional:
  J.P.Perdew, K.Burke, M.Ernzerhof, PRL 77, 3865 (1996)

 Real(R)+Recip(G) space primitive vectors, cartesian coordinates (Bohr,Bohr^-1):
 R(1)=  8.6808000  0.0000000  0.0000000  G(1)=  0.1151968  0.0000000  0.0000000
 R(2)=  0.0000000  8.6808000  0.0000000  G(2)=  0.0000000  0.1151968  0.0000000
 R(3)=  0.0000000  0.0000000 27.0000000  G(3)=  0.0000000  0.0000000  0.0370370
 Unit cell volume ucvol=  2.0346198E+03 bohr^3
 Angles (23,13,12)=  9.00000000E+01  9.00000000E+01  9.00000000E+01 degrees

 getcut: wavevector=  0.0000  0.0000  0.0000  ngfft=  64  64 192
         ecut(hartree)=     60.000   => boxcut(ratio)=   2.03937

--- Pseudopotential description ------------------------------------------------
- pspini: atom type   1  psp file is ../../../Psps_for_tests/Ti.psp8
- pspatm: opening atomic psp file    ../../../Psps_for_tests/Ti.psp8
- Ti    ONCVPSP-3.2.3.1  r_core=   1.35825   1.31050   1.66360
- 22.00000  12.00000    170504                znucl, zion, pspdat
    8   11    2    4       600   0.00000      pspcod,pspxc,lmax,lloc,mmax,r2well
    5.99000000000000    2.50000000000000    0.00000000000000   rchrg,fchrg,qchrg
     nproj     2     2     2
     extension_switch     1
  pspatm : epsatm=   14.68144390
         --- l  ekb(1:nproj) -->
             0   11.362348    1.263639
             1    1.975402   -0.084666
             2   -5.186090   -1.477451
 pspatm: atomic psp has been read  and splines computed

- pspini: atom type   2  psp file is ../../../Psps_for_tests/O.psp8
- pspatm: opening atomic psp file    ../../../Psps_for_tests/O.psp8
- O     ONCVPSP-3.2.3.1  r_core=   1.35509   1.45563   1.26150
-  8.00000   6.00000    170504                znucl, zion, pspdat
    8   11    2    4       600   0.00000      pspcod,pspxc,lmax,lloc,mmax,r2well
    5.99000000000000    4.00000000000000    0.00000000000000   rchrg,fchrg,qchrg
     nproj     2     2     1
     extension_switch     1
  pspatm : epsatm=    6.19546011
         --- l  ekb(1:nproj) -->
             0    6.056735    0.824024
             1   -4.717130   -1.149271
             2   -1.331955
 pspatm: atomic psp has been read  and splines computed

- pspini: atom type   3  psp file is ../../../Psps_for_tests/Pd.psp8
- pspatm: opening atomic psp file    ../../../Psps_for_tests/Pd.psp8
- Pd    ONCVPSP-3.2.3.1  r_core=   1.41052   1.46191   1.55175
- 46.00000  18.00000    170510                znucl, zion, pspdat
    8   11    2    4       600   0.00000      pspcod,pspxc,lmax,lloc,mmax,r2well
    5.99000000000000    7.00000000000000    0.00000000000000   rchrg,fchrg,qchrg
     nproj     2     2     2
     extension_switch     1
  pspatm : epsatm=   26.09224486
         --- l  ekb(1:nproj) -->
             0    7.845850   -2.282160
             1    3.261104   -0.686948
             2   -1.134855   -0.401224
 pspatm: atomic psp has been read  and splines computed

--------------------------------------------------------------------------------

[...]
                      -1.8042195276E-05 -1.4185982349E-04 -7.5023041133E-05
           strten4     2.8514589117E-04 -7.4638614322E-04  3.1999007326E-04
                      -7.5625046194E-06 -1.3099706706E-04 -7.7506222509E-05
           strten5     2.7334856709E-04 -7.6172961797E-04  3.4702652284E-04
                      -9.0155695395E-06 -1.3130732070E-04 -8.9006511685E-05
           toldfe      1.00000000E-04 Hartree
            typat      1  1  2  2  2  2  3  3  3  3
              wtk        0.50000    0.50000
           xangst1     0.0000000000E+00  0.0000000000E+00  0.0000000000E+00
                       2.2968407562E+00  1.4793678043E+00  2.2968407562E+00
                       1.4240158683E+00  0.0000000000E+00  1.4240158683E+00
                       3.1696656440E+00  0.0000000000E+00  3.1696656440E+00
                       8.7282488785E-01  1.4793678043E+00  3.7208566245E+00
                       3.7208566245E+00  1.4793678043E+00  8.7282488785E-01
                       8.7282488785E-01  0.0000000000E+00  5.6520359295E+00
                       1.9453612542E+00  1.3755961537E+00  7.0276320832E+00
                       1.9453612542E+00 -1.3755961537E+00  7.0276320832E+00
                       0.0000000000E+00  0.0000000000E+00  8.4031753192E+00
           xangst2     0.0000000000E+00  0.0000000000E+00  0.0000000000E+00
                       2.2968407562E+00  1.4793678043E+00  2.2968407562E+00
                       1.4240158683E+00  0.0000000000E+00  1.4240158683E+00
                       3.1696656440E+00  0.0000000000E+00  3.1696656440E+00
                       8.7282488785E-01  1.4793678043E+00  3.7208566245E+00
                       3.7208566245E+00  1.4793678043E+00  8.7282488785E-01
                       8.7282488785E-01  0.0000000000E+00  5.9166245338E+00
                       1.9453612542E+00  1.3755961537E+00  7.2922206875E+00
                       1.9453612542E+00 -1.3755961537E+00  7.2922206875E+00
                       0.0000000000E+00  0.0000000000E+00  8.6677639235E+00
           xangst3     0.0000000000E+00  0.0000000000E+00  0.0000000000E+00
                       2.2968407562E+00  1.4793678043E+00  2.2968407562E+00
                       1.4240158683E+00  0.0000000000E+00  1.4240158683E+00
                       3.1696656440E+00  0.0000000000E+00  3.1696656440E+00
                       8.7282488785E-01  1.4793678043E+00  3.7208566245E+00
                       3.7208566245E+00  1.4793678043E+00  8.7282488785E-01
                       8.7282488785E-01  0.0000000000E+00  6.1812131381E+00
                       1.9453612542E+00  1.3755961537E+00  7.5568092918E+00
                       1.9453612542E+00 -1.3755961537E+00  7.5568092918E+00
                       0.0000000000E+00  0.0000000000E+00  8.9323525278E+00
           xangst4     0.0000000000E+00  0.0000000000E+00  0.0000000000E+00
                       2.2968407562E+00  1.4793678043E+00  2.2968407562E+00
                       1.4240158683E+00  0.0000000000E+00  1.4240158683E+00
                       3.1696656440E+00  0.0000000000E+00  3.1696656440E+00
                       8.7282488785E-01  1.4793678043E+00  3.7208566245E+00
                       3.7208566245E+00  1.4793678043E+00  8.7282488785E-01
                       8.7282488785E-01  0.0000000000E+00  6.4458017424E+00
                       1.9453612542E+00  1.3755961537E+00  7.8213978961E+00
                       1.9453612542E+00 -1.3755961537E+00  7.8213978961E+00
                       0.0000000000E+00  0.0000000000E+00  9.1969411321E+00
           xangst5     0.0000000000E+00  0.0000000000E+00  0.0000000000E+00
                       2.2968407562E+00  1.4793678043E+00  2.2968407562E+00
                       1.4240158683E+00  0.0000000000E+00  1.4240158683E+00
                       3.1696656440E+00  0.0000000000E+00  3.1696656440E+00
                       8.7282488785E-01  1.4793678043E+00  3.7208566245E+00
                       3.7208566245E+00  1.4793678043E+00  8.7282488785E-01
                       8.7282488785E-01  0.0000000000E+00  6.7103903467E+00
                       1.9453612542E+00  1.3755961537E+00  8.0859865004E+00
                       1.9453612542E+00 -1.3755961537E+00  8.0859865004E+00
                       0.0000000000E+00  0.0000000000E+00  9.4615297364E+00
            xcart1     0.0000000000E+00  0.0000000000E+00  0.0000000000E+00
                       4.3404000000E+00  2.7956000000E+00  4.3404000000E+00
                       2.6910000000E+00  0.0000000000E+00  2.6910000000E+00
                       5.9898000000E+00  0.0000000000E+00  5.9898000000E+00
                       1.6494000000E+00  2.7956000000E+00  7.0314000000E+00
                       7.0314000000E+00  2.7956000000E+00  1.6494000000E+00
                       1.6494000000E+00  0.0000000000E+00  1.0680800000E+01
                       3.6762000000E+00  2.5995000000E+00  1.3280300000E+01
                       3.6762000000E+00 -2.5995000000E+00  1.3280300000E+01
                       0.0000000000E+00  0.0000000000E+00  1.5879700000E+01
            xcart2     0.0000000000E+00  0.0000000000E+00  0.0000000000E+00
                       4.3404000000E+00  2.7956000000E+00  4.3404000000E+00
                       2.6910000000E+00  0.0000000000E+00  2.6910000000E+00
                       5.9898000000E+00  0.0000000000E+00  5.9898000000E+00
                       1.6494000000E+00  2.7956000000E+00  7.0314000000E+00
                       7.0314000000E+00  2.7956000000E+00  1.6494000000E+00
                       1.6494000000E+00  0.0000000000E+00  1.1180800000E+01
                       3.6762000000E+00  2.5995000000E+00  1.3780300000E+01
                       3.6762000000E+00 -2.5995000000E+00  1.3780300000E+01
                       0.0000000000E+00  0.0000000000E+00  1.6379700000E+01
            xcart3     0.0000000000E+00  0.0000000000E+00  0.0000000000E+00
                       4.3404000000E+00  2.7956000000E+00  4.3404000000E+00
                       2.6910000000E+00  0.0000000000E+00  2.6910000000E+00
                       5.9898000000E+00  0.0000000000E+00  5.9898000000E+00
                       1.6494000000E+00  2.7956000000E+00  7.0314000000E+00
                       7.0314000000E+00  2.7956000000E+00  1.6494000000E+00
                       1.6494000000E+00  0.0000000000E+00  1.1680800000E+01
                       3.6762000000E+00  2.5995000000E+00  1.4280300000E+01
                       3.6762000000E+00 -2.5995000000E+00  1.4280300000E+01
                       0.0000000000E+00  0.0000000000E+00  1.6879700000E+01
            xcart4     0.0000000000E+00  0.0000000000E+00  0.0000000000E+00
                       4.3404000000E+00  2.7956000000E+00  4.3404000000E+00
                       2.6910000000E+00  0.0000000000E+00  2.6910000000E+00
                       5.9898000000E+00  0.0000000000E+00  5.9898000000E+00
                       1.6494000000E+00  2.7956000000E+00  7.0314000000E+00
                       7.0314000000E+00  2.7956000000E+00  1.6494000000E+00
                       1.6494000000E+00  0.0000000000E+00  1.2180800000E+01
                       3.6762000000E+00  2.5995000000E+00  1.4780300000E+01
                       3.6762000000E+00 -2.5995000000E+00  1.4780300000E+01
                       0.0000000000E+00  0.0000000000E+00  1.7379700000E+01
            xcart5     0.0000000000E+00  0.0000000000E+00  0.0000000000E+00
                       4.3404000000E+00  2.7956000000E+00  4.3404000000E+00
                       2.6910000000E+00  0.0000000000E+00  2.6910000000E+00
                       5.9898000000E+00  0.0000000000E+00  5.9898000000E+00
                       1.6494000000E+00  2.7956000000E+00  7.0314000000E+00
                       7.0314000000E+00  2.7956000000E+00  1.6494000000E+00
                       1.6494000000E+00  0.0000000000E+00  1.2680800000E+01
                       3.6762000000E+00  2.5995000000E+00  1.5280300000E+01
                       3.6762000000E+00 -2.5995000000E+00  1.5280300000E+01
                       0.0000000000E+00  0.0000000000E+00  1.7879700000E+01
             xred1     0.0000000000E+00  0.0000000000E+00  0.0000000000E+00
                       5.0000000000E-01  3.2204405124E-01  1.7361600000E-01
                       3.0999447056E-01  0.0000000000E+00  1.0764000000E-01
                       6.9000552944E-01  0.0000000000E+00  2.3959200000E-01
                       1.9000552944E-01  3.2204405124E-01  2.8125600000E-01
                       8.0999447056E-01  3.2204405124E-01  6.5976000000E-02
                       1.9000552944E-01  0.0000000000E+00  4.2723200000E-01
                       4.2348631463E-01  2.9945396738E-01  5.3121200000E-01
                       4.2348631463E-01 -2.9945396738E-01  5.3121200000E-01
                       0.0000000000E+00  0.0000000000E+00  6.3518800000E-01
             xred2     0.0000000000E+00  0.0000000000E+00  0.0000000000E+00
                       5.0000000000E-01  3.2204405124E-01  1.7021176471E-01
                       3.0999447056E-01  0.0000000000E+00  1.0552941176E-01
                       6.9000552944E-01  0.0000000000E+00  2.3489411765E-01
                       1.9000552944E-01  3.2204405124E-01  2.7574117647E-01
                       8.0999447056E-01  3.2204405124E-01  6.4682352941E-02
                       1.9000552944E-01  0.0000000000E+00  4.3846274510E-01
                       4.2348631463E-01  2.9945396738E-01  5.4040392157E-01
                       4.2348631463E-01 -2.9945396738E-01  5.4040392157E-01
                       0.0000000000E+00  0.0000000000E+00  6.4234117647E-01
             xred3     0.0000000000E+00  0.0000000000E+00  0.0000000000E+00
                       5.0000000000E-01  3.2204405124E-01  1.6693846154E-01
                       3.0999447056E-01  0.0000000000E+00  1.0350000000E-01
                       6.9000552944E-01  0.0000000000E+00  2.3037692308E-01
                       1.9000552944E-01  3.2204405124E-01  2.7043846154E-01
                       8.0999447056E-01  3.2204405124E-01  6.3438461538E-02
                       1.9000552944E-01  0.0000000000E+00  4.4926153846E-01
                       4.2348631463E-01  2.9945396738E-01  5.4924230769E-01
                       4.2348631463E-01 -2.9945396738E-01  5.4924230769E-01
                       0.0000000000E+00  0.0000000000E+00  6.4921923077E-01
             xred4     0.0000000000E+00  0.0000000000E+00  0.0000000000E+00
                       5.0000000000E-01  3.2204405124E-01  1.6378867925E-01
                       3.0999447056E-01  0.0000000000E+00  1.0154716981E-01
                       6.9000552944E-01  0.0000000000E+00  2.2603018868E-01
                       1.9000552944E-01  3.2204405124E-01  2.6533584906E-01
                       8.0999447056E-01  3.2204405124E-01  6.2241509434E-02
                       1.9000552944E-01  0.0000000000E+00  4.5965283019E-01
                       4.2348631463E-01  2.9945396738E-01  5.5774716981E-01
                       4.2348631463E-01 -2.9945396738E-01  5.5774716981E-01
                       0.0000000000E+00  0.0000000000E+00  6.5583773585E-01
             xred5     0.0000000000E+00  0.0000000000E+00  0.0000000000E+00
                       5.0000000000E-01  3.2204405124E-01  1.6075555556E-01
                       3.0999447056E-01  0.0000000000E+00  9.9666666667E-02
                       6.9000552944E-01  0.0000000000E+00  2.2184444444E-01
                       1.9000552944E-01  3.2204405124E-01  2.6042222222E-01
                       8.0999447056E-01  3.2204405124E-01  6.1088888889E-02
                       1.9000552944E-01  0.0000000000E+00  4.6965925926E-01
                       4.2348631463E-01  2.9945396738E-01  5.6593703704E-01
                       4.2348631463E-01 -2.9945396738E-01  5.6593703704E-01
                       0.0000000000E+00  0.0000000000E+00  6.6221111111E-01
            znucl       22.00000    8.00000   46.00000

================================================================================

- Total cpu        time (s,m,h):       9887.0      164.78      2.746
- Total wall clock time (s,m,h):       9914.4      165.24      2.754
-
- For major independent code sections, cpu and wall times (sec),
-  as well as % of the time and number of calls for node 0-
-<BEGIN_TIMER mpi_nprocs = 1, omp_nthreads = 1, mpi_rank = 0>
- cpu_time =         9887.0, wall_time =         9914.4
-
- routine                        cpu     %       wall     %      number of calls  Gflops    Speedup Efficacity
-                                                                  (-1=no count)
- projbd                      2749.125  27.8   2752.488  27.8         254148      -1.00        1.00       1.00
- fourwf%(pot)                2700.828  27.3   2715.526  27.4         159314      -1.00        0.99       0.99
- nonlop(apply)               2693.094  27.2   2696.834  27.2         159314      -1.00        1.00       1.00
- vtowfk(ssdiag)               491.688   5.0    493.052   5.0             -1      -1.00        1.00       1.00
- fourwf%(den)                 297.797   3.0    298.297   3.0          30000      -1.00        1.00       1.00
- xc:pot/=fourdp                64.984   0.7     65.248   0.7            255      -1.00        1.00       1.00
- fourdp                        57.969   0.6     58.246   0.6           3055      -1.00        1.00       1.00
- getghc-other                  54.453   0.6     55.741   0.6             -1      -1.00        0.98       0.98
- others (105)                  78.500   0.8     79.781   0.8             -1      -1.00        0.98       0.98
-<END_TIMER>
-
- subtotal                    9188.438  92.9   9215.213  92.9                                  1.00       1.00

- For major independent code sections, cpu and wall times (sec),
- as well as % of the total time and number of calls 

-<BEGIN_TIMER mpi_nprocs = 1, omp_nthreads = 1, mpi_rank = world>
- cpu_time =        9887.0, wall_time =        9914.4
-
- routine                         cpu     %       wall     %      number of calls Gflops    Speedup Efficacity
-                                                                  (-1=no count)
- projbd                      2749.125  27.8   2752.488  27.8         254148      -1.00        1.00       1.00
- fourwf%(pot)                2700.828  27.3   2715.526  27.4         159314      -1.00        0.99       0.99
- nonlop(apply)               2693.094  27.2   2696.834  27.2         159314      -1.00        1.00       1.00
- vtowfk(ssdiag)               491.688   5.0    493.052   5.0             -1      -1.00        1.00       1.00
- fourwf%(den)                 297.797   3.0    298.297   3.0          30000      -1.00        1.00       1.00
- xc:pot/=fourdp                64.984   0.7     65.248   0.7            255      -1.00        1.00       1.00
- fourdp                        57.969   0.6     58.246   0.6           3055      -1.00        1.00       1.00
- getghc-other                  54.453   0.6     55.741   0.6             -1      -1.00        0.98       0.98
- others (105)                  78.500   0.8     79.781   0.8             -1      -1.00        0.98       0.98
-<END_TIMER>

- subtotal                    9188.438  92.9   9215.213  92.9                                  1.00       1.00

================================================================================

 Suggested references for the acknowledgment of ABINIT usage.

 The users of ABINIT have little formal obligations with respect to the ABINIT group
 (those specified in the GNU General Public License, http://www.gnu.org/copyleft/gpl.txt).
 However, it is common practice in the scientific literature,
 to acknowledge the efforts of people that have made the research possible.
 In this spirit, please find below suggested citations of work written by ABINIT developers,
 corresponding to implementations inside of ABINIT that you have used in the present run.
 Note also that it will be of great value to readers of publications presenting these results,
 to read papers enabling them to understand the theoretical formalism and details
 of the ABINIT implementation.
 For information on why they are suggested, see also https://www.abinit.org/about/?text=acknowledgments.
-
- [1] Recent developments in the ABINIT software package.
- Computer Phys. Comm. 205, 106 (2016).
- X.Gonze, F.Jollet, F.Abreu Araujo, D.Adams, B.Amadon, T.Applencourt,
- C.Audouze, J.-M.Beuken, J.Bieder, A.Bokhanchuk, E.Bousquet, F.Bruneval
- D.Caliste, M.Cote, F.Dahm, F.Da Pieve, M.Delaveau, M.Di Gennaro,
- B.Dorado, C.Espejo, G.Geneste, L.Genovese, A.Gerossier, M.Giantomassi,
- Y.Gillet, D.R.Hamann, L.He, G.Jomard, J.Laflamme Janssen, S.Le Roux,
- A.Levitt, A.Lherbier, F.Liu, I.Lukacevic, A.Martin, C.Martins,
- M.J.T.Oliveira, S.Ponce, Y.Pouillon, T.Rangel, G.-M.Rignanese,
- A.H.Romero, B.Rousseau, O.Rubel, A.A.Shukri, M.Stankovski, M.Torrent,
- M.J.Van Setten, B.Van Troeye, M.J.Verstraete, D.Waroquier, J.Wiktor,
- B.Xue, A.Zhou, J.W.Zwanziger.
- Comment : the fourth generic paper describing the ABINIT project.
- Note that a version of this paper, that is not formatted for Computer Phys. Comm. 
- is available at https://www.abinit.org/about/ABINIT16.pdf .
- The licence allows the authors to put it on the Web.
-
- [2] Optimized norm-conserving Vanderbilt pseudopotentials.
- D.R. Hamann, Phys. Rev. B 88, 085117 (2013).
- Comment: Some pseudopotential generated using the ONCVPSP code were used.
-
- [3] ABINIT : First-principles approach of materials and nanosystem properties.
- Computer Phys. Comm. 180, 2582-2615 (2009).
- X. Gonze, B. Amadon, P.-M. Anglade, J.-M. Beuken, F. Bottin, P. Boulanger, F. Bruneval,
- D. Caliste, R. Caracas, M. Cote, T. Deutsch, L. Genovese, Ph. Ghosez, M. Giantomassi
- S. Goedecker, D.R. Hamann, P. Hermet, F. Jollet, G. Jomard, S. Leroux, M. Mancini, S. Mazevet,
- M.J.T. Oliveira, G. Onida, Y. Pouillon, T. Rangel, G.-M. Rignanese, D. Sangalli, R. Shaltaf,
- M. Torrent, M.J. Verstraete, G. Zerah, J.W. Zwanziger
- Comment : the third generic paper describing the ABINIT project.
- Note that a version of this paper, that is not formatted for Computer Phys. Comm. 
- is available at https://www.abinit.org/about/ABINIT_CPC_v10.pdf .
- The licence allows the authors to put it on the Web.
-
- [4] A brief introduction to the ABINIT software package.
- Z. Kristallogr. 220, 558-562 (2005).
- X. Gonze, G.-M. Rignanese, M. Verstraete, J.-M. Beuken, Y. Pouillon, R. Caracas, F. Jollet,
- M. Torrent, G. Zerah, M. Mikami, Ph. Ghosez, M. Veithen, J.-Y. Raty, V. Olevano, F. Bruneval,
- L. Reining, R. Godby, G. Onida, D.R. Hamann, and D.C. Allan.
- Comment : the second generic paper describing the ABINIT project. Note that this paper
- should be cited especially if you are using the GW part of ABINIT, as several authors
- of this part are not in the list of authors of the first or third paper.
- The .pdf of the latter paper is available at https://www.abinit.org/about/zfk_0505-06_558-562.pdf.
- Note that it should not redistributed (Copyright by Oldenburg Wissenshaftverlag,
- the licence allows the authors to put it on the Web).
-
- And optionally:
-
- [5] First-principles computation of material properties : the ABINIT software project. 
- X. Gonze, J.-M. Beuken, R. Caracas, F. Detraux, M. Fuchs, G.-M. Rignanese, L. Sindic,
- M. Verstraete, G. Zerah, F. Jollet, M. Torrent, A. Roy, M. Mikami, Ph. Ghosez, J.-Y. Raty, D.C. Allan.
- Computational Materials Science 25, 478-492 (2002). http://dx.doi.org/10.1016/S0927-0256(02)00325-7
- Comment : the original paper describing the ABINIT project.
-
- Proc.   0 individual time (sec): cpu=       9887.1  wall=       9914.4

================================================================================

 Calculation completed.
.Delivered   4 WARNINGs and  10 COMMENTs to log file.
+Overall time at end (sec) : cpu=       9887.1  wall=       9914.4
