
.Version 8.6.3 of ABINIT 
.(sequential version, prepared for a x86_64_linux_gnu5.4 computer) 

.Copyright (C) 1998-2017 ABINIT group . 
 ABINIT comes with ABSOLUTELY NO WARRANTY.
 It is free software, and you are welcome to redistribute it
 under certain conditions (GNU General Public License,
 see ~abinit/COPYING or http://www.gnu.org/copyleft/gpl.txt).

 ABINIT is a project of the Universite Catholique de Louvain,
 Corning Inc. and other collaborators, see ~abinit/doc/developers/contributors.txt .
 Please read ~abinit/doc/users/acknowledgments.html for suggested
 acknowledgments of the ABINIT effort.
 For more information, see https://www.abinit.org .

.Starting date : Sun 22 Apr 2018.
- ( at 17h05 )
  
- input  file    -> DOSwithoutGeom1LayerMedUnit.in
- output file    -> DOSwithoutGeom1LayerMedUnit.out
- root for input  files -> DOSwithoutGeom1LayerMedUnit_i
- root for output files -> DOSwithoutGeom1LayerMedUnit_o


 Symmetries : space group P1 (#  1); Bravais aP (primitive triclinic)
================================================================================
 Values of the parameters that define the memory need of the present run
     intxc =       0    ionmov =       0      iscf =       7    lmnmax =       6
     lnmax =       6     mgfft =     320  mpssoang =       3    mqgrid =   15692
     natom =      10  nloc_mem =       1    nspden =       1   nspinor =       1
    nsppol =       1      nsym =       1    n1xccc =    2501    ntypat =       3
    occopt =       1   xclevel =       2
-    mband =          62        mffmem =           1         mkmem =           2
       mpw =       75364          nfft =     1310720          nkpt =           2
================================================================================
P This job should need less than                     541.142 Mbytes of memory.
  Rough estimation (10% accuracy) of disk space for files :
_ WF disk file :    142.597 Mbytes ; DEN or POT disk file :     10.002 Mbytes.
================================================================================

--------------------------------------------------------------------------------
------------- Echo of variables that govern the present computation ------------
--------------------------------------------------------------------------------
-
- outvars: echo of selected default values                                      
-   iomode0 =  0 , fftalg0 =112 , wfoptalg0 =  0
-
- outvars: echo of global parameters not present in the input file              
-  max_nthreads =    0
-
 -outvars: echo values of preprocessed input variables --------
            acell      8.6808000000E+00  8.6808000000E+00  4.5000000000E+01 Bohr
              amu      4.78800000E+01  1.59994000E+01  1.06420000E+02
           diemac      1.20000000E+01
             ecut      6.00000000E+01 Hartree
-          fftalg         112
              ixc          11
              kpt      1.25000000E-01  5.00000000E-01  5.00000000E-01
                       3.75000000E-01  5.00000000E-01  5.00000000E-01
           kptopt           2
         kptrlatt        4    0    0      0    1    0      0    0    1
          kptrlen      8.68080000E+00
P           mkmem           2
            natom          10
            nband          62
            ngfft          64      64     320
             nkpt           2
            nstep          10
             nsym           1
           ntypat           3
              occ      2.000000  2.000000  2.000000  2.000000  2.000000  2.000000
                       2.000000  2.000000  2.000000  2.000000  2.000000  2.000000
                       2.000000  2.000000  2.000000  2.000000  2.000000  2.000000
                       2.000000  2.000000  2.000000  2.000000  2.000000  2.000000
                       2.000000  2.000000  2.000000  2.000000  2.000000  2.000000
                       2.000000  2.000000  2.000000  2.000000  2.000000  2.000000
                       2.000000  2.000000  2.000000  2.000000  2.000000  2.000000
                       2.000000  2.000000  2.000000  2.000000  2.000000  2.000000
                       2.000000  2.000000  2.000000  2.000000  2.000000  2.000000
                       2.000000  2.000000  2.000000  2.000000  2.000000  2.000000
                       0.000000  0.000000
           prtdos           2
           shiftk      5.00000000E-01  5.00000000E-01  5.00000000E-01
          spgroup           1
           toldfe      1.00000000E-02 Hartree
            typat      1  1  2  2  2  2  3  3  3  3
              wtk        0.50000    0.50000
           xangst      0.0000000000E+00  0.0000000000E+00  0.0000000000E+00
                       2.2968407562E+00  1.4793678043E+00  2.2968407562E+00
                       3.9876836484E+01  0.0000000000E+00  1.4240158683E+00
                       3.1696656440E+00  0.0000000000E+00  3.1696656440E+00
                       8.7282488785E-01  1.4793678043E+00  3.7208566245E+00
                       3.7208566245E+00  1.4793678043E+00  8.7282488785E-01
                       8.7282488785E-01  0.0000000000E+00  7.5041561596E+00
                       1.9453612542E+00  1.3755961537E+00  8.8797523133E+00
                       1.9453612542E+00 -1.3755961537E+00  8.8797523133E+00
                       0.0000000000E+00  0.0000000000E+00  1.0255295549E+01
            xcart      0.0000000000E+00  0.0000000000E+00  0.0000000000E+00
                       4.3404000000E+00  2.7956000000E+00  4.3404000000E+00
                       7.5356300000E+01  0.0000000000E+00  2.6910000000E+00
                       5.9898000000E+00  0.0000000000E+00  5.9898000000E+00
                       1.6494000000E+00  2.7956000000E+00  7.0314000000E+00
                       7.0314000000E+00  2.7956000000E+00  1.6494000000E+00
                       1.6494000000E+00  0.0000000000E+00  1.4180800000E+01
                       3.6762000000E+00  2.5995000000E+00  1.6780300000E+01
                       3.6762000000E+00 -2.5995000000E+00  1.6780300000E+01
                       0.0000000000E+00  0.0000000000E+00  1.9379700000E+01
             xred      0.0000000000E+00  0.0000000000E+00  0.0000000000E+00
                       5.0000000000E-01  3.2204405124E-01  9.6453333333E-02
                       8.6808013086E+00  0.0000000000E+00  5.9800000000E-02
                       6.9000552944E-01  0.0000000000E+00  1.3310666667E-01
                       1.9000552944E-01  3.2204405124E-01  1.5625333333E-01
                       8.0999447056E-01  3.2204405124E-01  3.6653333333E-02
                       1.9000552944E-01  0.0000000000E+00  3.1512888889E-01
                       4.2348631463E-01  2.9945396738E-01  3.7289555556E-01
                       4.2348631463E-01 -2.9945396738E-01  3.7289555556E-01
                       0.0000000000E+00  0.0000000000E+00  4.3066000000E-01
            znucl       22.00000    8.00000   46.00000

================================================================================

 chkinp: Checking input parameters for consistency.

================================================================================
== DATASET  1 ==================================================================
-   nproc =    1

 Exchange-correlation functional for the present dataset will be:
  GGA: Perdew-Burke-Ernzerhof functional - ixc=11
 Citation for XC functional:
  J.P.Perdew, K.Burke, M.Ernzerhof, PRL 77, 3865 (1996)

 Real(R)+Recip(G) space primitive vectors, cartesian coordinates (Bohr,Bohr^-1):
 R(1)=  8.6808000  0.0000000  0.0000000  G(1)=  0.1151968  0.0000000  0.0000000
 R(2)=  0.0000000  8.6808000  0.0000000  G(2)=  0.0000000  0.1151968  0.0000000
 R(3)=  0.0000000  0.0000000 45.0000000  G(3)=  0.0000000  0.0000000  0.0222222
 Unit cell volume ucvol=  3.3910330E+03 bohr^3
 Angles (23,13,12)=  9.00000000E+01  9.00000000E+01  9.00000000E+01 degrees

 getcut: wavevector=  0.0000  0.0000  0.0000  ngfft=  64  64 320
         ecut(hartree)=     60.000   => boxcut(ratio)=   2.03937

--- Pseudopotential description ------------------------------------------------
- pspini: atom type   1  psp file is ../../../Psps_for_tests/Ti.psp8
- pspatm: opening atomic psp file    ../../../Psps_for_tests/Ti.psp8
- Ti    ONCVPSP-3.2.3.1  r_core=   1.35825   1.31050   1.66360
- 22.00000  12.00000    170504                znucl, zion, pspdat
    8   11    2    4       600   0.00000      pspcod,pspxc,lmax,lloc,mmax,r2well
    5.99000000000000    2.50000000000000    0.00000000000000   rchrg,fchrg,qchrg
     nproj     2     2     2
     extension_switch     1
  pspatm : epsatm=   14.68144390
         --- l  ekb(1:nproj) -->
             0   11.362348    1.263639
             1    1.975402   -0.084666
             2   -5.186090   -1.477451
 pspatm: atomic psp has been read  and splines computed

- pspini: atom type   2  psp file is ../../../Psps_for_tests/O.psp8
- pspatm: opening atomic psp file    ../../../Psps_for_tests/O.psp8
- O     ONCVPSP-3.2.3.1  r_core=   1.35509   1.45563   1.26150
-  8.00000   6.00000    170504                znucl, zion, pspdat
    8   11    2    4       600   0.00000      pspcod,pspxc,lmax,lloc,mmax,r2well
    5.99000000000000    4.00000000000000    0.00000000000000   rchrg,fchrg,qchrg
     nproj     2     2     1
     extension_switch     1
  pspatm : epsatm=    6.19546011
         --- l  ekb(1:nproj) -->
             0    6.056735    0.824024
             1   -4.717130   -1.149271
             2   -1.331955
 pspatm: atomic psp has been read  and splines computed

- pspini: atom type   3  psp file is ../../../Psps_for_tests/Pd.psp8
- pspatm: opening atomic psp file    ../../../Psps_for_tests/Pd.psp8
- Pd    ONCVPSP-3.2.3.1  r_core=   1.41052   1.46191   1.55175
- 46.00000  18.00000    170510                znucl, zion, pspdat
    8   11    2    4       600   0.00000      pspcod,pspxc,lmax,lloc,mmax,r2well
    5.99000000000000    7.00000000000000    0.00000000000000   rchrg,fchrg,qchrg
     nproj     2     2     2
     extension_switch     1
  pspatm : epsatm=   26.09224486
         --- l  ekb(1:nproj) -->
             0    7.845850   -2.282160
             1    3.261104   -0.686948
             2   -1.134855   -0.401224
 pspatm: atomic psp has been read  and splines computed

   1.90216449E+04                                ecore*ucvol(ha*bohr**3)
--------------------------------------------------------------------------------

_setup2: Arith. and geom. avg. npw (full set) are   75298.000   75297.971

================================================================================

     iter   Etot(hartree)      deltaE(h)  residm     vres2
 ETOT  1  -614.02852581042    -6.140E+02 1.987E-01 4.062E+07
 ETOT  2   68.819494970824     6.828E+02 2.940E-01 3.259E+08
 ETOT  3  -476.56474045987    -5.454E+02 9.636E-01 9.741E+07
 ETOT  4  -714.95892711986    -2.384E+02 4.667E-01 1.911E+06
 ETOT  5  -720.57749947815    -5.619E+00 1.022E-01 9.048E+05
 ETOT  6  -718.95731479123     1.620E+00 3.624E-02 1.749E+06
 ETOT  7  -720.92067732247    -1.963E+00 1.478E-02 1.191E+06
 ETOT  8  -723.53566612935    -2.615E+00 3.161E-02 4.376E+05
 ETOT  9  -721.23252438991     2.303E+00 2.367E-02 1.713E+06
 ETOT 10  -693.66005511070     2.757E+01 1.118E-01 6.325E+06

 Cartesian components of stress tensor (hartree/bohr^3)
  sigma(1 1)= -3.55564668E-03  sigma(3 2)=  1.74747705E-04
  sigma(2 2)= -4.23080233E-03  sigma(3 1)=  9.01977450E-04
  sigma(3 3)=  7.65903755E-03  sigma(2 1)=  2.87781471E-04


 scprqt:  WARNING -
  nstep=   10 was not enough SCF cycles to converge;
  maximum energy difference=  2.757E+01 exceeds toldfe=  1.000E-02

 Integrated electronic density in atomic spheres:
 ------------------------------------------------
 Atom  Sphere_radius  Integrated_density
    1        2.00000         10.98722511
    2        2.00000          8.77032261
    3        2.00000          4.45958888
    4        2.00000          2.66971514
    5        2.00000          1.84950306
    6        2.00000          3.92399561
    7        2.00000         15.86830953
    8        2.00000         16.11442802
    9        2.00000         15.77406764
   10        2.00000         15.21621034
================================================================================

 ----iterations are completed or convergence reached----

 Mean square residual over all n,k,spin=   9.4303E-03; max=  1.1176E-01
 reduced coordinates (array xred) for   10 atoms
       0.000000000000      0.000000000000      0.000000000000
       0.500000000000      0.322044051240      0.096453333333
       8.680801308635      0.000000000000      0.059800000000
       0.690005529444      0.000000000000      0.133106666667
       0.190005529444      0.322044051240      0.156253333333
       0.809994470556      0.322044051240      0.036653333333
       0.190005529444      0.000000000000      0.315128888889
       0.423486314625      0.299453967376      0.372895555556
       0.423486314625     -0.299453967376      0.372895555556
       0.000000000000      0.000000000000      0.430660000000
 rms dE/dt=  4.2874E+01; max dE/dt=  9.7827E+01; dE/dt below (all hartree)
    1       6.856128391554     -3.525506594074   -147.993112431203
    2      -2.843332400477     -1.463263895782    -25.786630379600
    3      -0.069525709588      6.642761903592     97.826777251060
    4      -0.873943590320      4.456008276971    -54.098927417354
    5       1.366933295775     -1.847980405083    -82.141657941109
    6      -4.491159450953     -3.061205895250     97.793724505467
    7       1.858539281949     -0.916442265182     51.352769158440
    8      -0.521902786102      1.595990899932     20.488494313061
    9      -0.375003882897     -1.340975026724     21.110815068319
   10      -0.635862630421      0.060956215837      9.438248763251

 cartesian coordinates (angstrom) at end:
    1      0.00000000000000     0.00000000000000     0.00000000000000
    2      2.29684075616404     1.47936780433420     2.29684075616404
    3     39.87683648367062     0.00000000000000     1.42401586831569
    4      3.16966564401238     0.00000000000000     3.16966564401238
    5      0.87282488784835     1.47936780433420     3.72085662447972
    6      3.72085662447973     1.47936780433420     0.87282488784835
    7      0.87282488784835     0.00000000000000     7.50415615957307
    8      1.94536125421856     1.37559615372970     8.87975231330278
    9      1.94536125421856    -1.37559615372970     8.87975231330278
   10      0.00000000000000     0.00000000000000    10.25529554931162

 cartesian forces (hartree/bohr) at end:
    1     -0.78668340932881     0.41304268218339     3.26204805600525
    2      0.33066300943792     0.17547901313311     0.54634845485851
    3      0.01112947671181    -0.75830886348823    -2.20061615915616
    4      0.10379580708829    -0.50640193940047     1.17551061125306
    5     -0.15434594091828     0.21979710700699     1.79868240066984
    6      0.52048734019962     0.35955674784282    -2.19988165369852
    7     -0.21097735578481     0.11248693514493    -1.16786042376460
    8      0.06324184844186    -0.17693721529220    -0.48198764942285
    9      0.04631957132399     0.16139173211549    -0.49581699953968
   10      0.07636965282841    -0.00010619924583    -0.23642663720483
 frms,max,avg= 9.9175714E-01 3.2620481E+00  -3.120E-03 -6.916E-03  2.669E-02 h/b

 cartesian forces (eV/Angstrom) at end:
    1    -40.45288398678100    21.23950690432040   167.74124127197535
    2     17.00337416664772     9.02349290223994    28.09436477070878
    3      0.57230065477109   -38.99380629751580  -113.16022319795886
    4      5.33739455118222   -26.04023252851600    60.44718093498523
    5     -7.93678672736312    11.30242072598158    92.49196006998655
    6     26.76453289849800    18.48914980876440  -113.12245341190112
    7    -10.84889092129480     5.78431028732219   -60.05379251052150
    8      3.25202632697063    -9.09847666581190   -24.78479936649348
    9      2.38184792365872     8.29909584754526   -25.49593308210888
   10      3.92708511371053    -0.00546098433006   -12.15754547867209
 frms,max,avg= 5.0998199E+01 1.6774124E+02  -1.605E-01 -3.556E-01  1.372E+00 e/A
 length scales=  8.680800000000  8.680800000000 45.000000000000 bohr
              =  4.593681512328  4.593681512328 23.812974386550 angstroms
 prteigrs : about to open file DOSwithoutGeom1LayerMedUnit_o_EIG
 Fermi (or HOMO) energy (hartree) =   0.22287   Average Vxc (hartree)=  -0.20280
 Eigenvalues (hartree) for nkpt=   2  k points:
 kpt#   1, nband= 62, wtk=  0.50000, kpt=  0.1250  0.5000  0.5000 (reduced coord)
  -3.30605   -3.24044   -3.22133   -3.16782   -2.11252   -2.05071   -2.04222   -2.00161
  -1.98578   -1.98021   -1.97738   -1.96958   -1.95974   -1.95797   -1.92041   -1.91910
  -1.91472   -1.78948   -1.13390   -1.12388   -1.10286   -0.94557   -0.93632   -0.91283
  -0.44224   -0.42491   -0.40275   -0.38776   -0.34338   -0.33935   -0.31734   -0.31495
  -0.30781   -0.29706   -0.28575   -0.27327   -0.26449   -0.24878   -0.22898   -0.21941
  -0.21218   -0.19659   -0.19374   -0.18977   -0.18839   -0.17389   -0.16833   -0.16440
  -0.11991   -0.10123    0.03411    0.04790    0.06069    0.06730    0.09083    0.09579
   0.11290    0.14964    0.17212    0.20443    0.23927    0.29243
 prteigrs : prtvol=0 or 1, do not print more k-points.


--------------------------------------------------------------------------------
 Components of total free energy (in Hartree) :

    Kinetic energy  =  2.49205897633261E+02
    Hartree energy  =  1.36144102093476E+03
    XC energy       = -1.13732755969809E+02
    Ewald energy    =  7.47820580497392E+02
    PspCore energy  =  5.60939542131996E+00
    Loc. psp. energy= -2.94880723059848E+03
    NL   psp  energy=  4.80303697085251E+00
    >>>>>>>>> Etotal= -6.93660055110696E+02

 Other information on the energy :
    Total energy(eV)= -1.88754500279659E+04 ; Band energy (Ha)=  -1.0463449207E+02
--------------------------------------------------------------------------------

 Cartesian components of stress tensor (hartree/bohr^3)
  sigma(1 1)= -3.55564668E-03  sigma(3 2)=  1.74747705E-04
  sigma(2 2)= -4.23080233E-03  sigma(3 1)=  9.01977450E-04
  sigma(3 3)=  7.65903755E-03  sigma(2 1)=  2.87781471E-04

-Cartesian components of stress tensor (GPa)         [Pressure=  1.2495E+00 GPa]
- sigma(1 1)= -1.04610720E+02  sigma(3 2)=  5.14125410E+00
- sigma(2 2)= -1.24474481E+02  sigma(3 1)=  2.65370883E+01
- sigma(3 3)=  2.25336626E+02  sigma(2 1)=  8.46682176E+00

== END DATASET(S) ==============================================================
================================================================================
  
 -outvars: echo values of variables after computation  --------
            acell      8.6808000000E+00  8.6808000000E+00  4.5000000000E+01 Bohr
              amu      4.78800000E+01  1.59994000E+01  1.06420000E+02
           diemac      1.20000000E+01
             ecut      6.00000000E+01 Hartree
           etotal     -6.9366005511E+02
            fcart     -7.8668340933E-01  4.1304268218E-01  3.2620480560E+00
                       3.3066300944E-01  1.7547901313E-01  5.4634845486E-01
                       1.1129476712E-02 -7.5830886349E-01 -2.2006161592E+00
                       1.0379580709E-01 -5.0640193940E-01  1.1755106113E+00
                      -1.5434594092E-01  2.1979710701E-01  1.7986824007E+00
                       5.2048734020E-01  3.5955674784E-01 -2.1998816537E+00
                      -2.1097735578E-01  1.1248693514E-01 -1.1678604238E+00
                       6.3241848442E-02 -1.7693721529E-01 -4.8198764942E-01
                       4.6319571324E-02  1.6139173212E-01 -4.9581699954E-01
                       7.6369652828E-02 -1.0619924583E-04 -2.3642663720E-01
-          fftalg         112
              ixc          11
              kpt      1.25000000E-01  5.00000000E-01  5.00000000E-01
                       3.75000000E-01  5.00000000E-01  5.00000000E-01
           kptopt           2
         kptrlatt        4    0    0      0    1    0      0    0    1
          kptrlen      8.68080000E+00
P           mkmem           2
            natom          10
            nband          62
            ngfft          64      64     320
             nkpt           2
            nstep          10
             nsym           1
           ntypat           3
              occ      2.000000  2.000000  2.000000  2.000000  2.000000  2.000000
                       2.000000  2.000000  2.000000  2.000000  2.000000  2.000000
                       2.000000  2.000000  2.000000  2.000000  2.000000  2.000000
                       2.000000  2.000000  2.000000  2.000000  2.000000  2.000000
                       2.000000  2.000000  2.000000  2.000000  2.000000  2.000000
                       2.000000  2.000000  2.000000  2.000000  2.000000  2.000000
                       2.000000  2.000000  2.000000  2.000000  2.000000  2.000000
                       2.000000  2.000000  2.000000  2.000000  2.000000  2.000000
                       2.000000  2.000000  2.000000  2.000000  2.000000  2.000000
                       2.000000  2.000000  2.000000  2.000000  2.000000  2.000000
                       0.000000  0.000000
           prtdos           2
           shiftk      5.00000000E-01  5.00000000E-01  5.00000000E-01
          spgroup           1
           strten     -3.5556466844E-03 -4.2308023284E-03  7.6590375486E-03
                       1.7474770455E-04  9.0197744959E-04  2.8778147086E-04
           toldfe      1.00000000E-02 Hartree
            typat      1  1  2  2  2  2  3  3  3  3
              wtk        0.50000    0.50000
           xangst      0.0000000000E+00  0.0000000000E+00  0.0000000000E+00
                       2.2968407562E+00  1.4793678043E+00  2.2968407562E+00
                       3.9876836484E+01  0.0000000000E+00  1.4240158683E+00
                       3.1696656440E+00  0.0000000000E+00  3.1696656440E+00
                       8.7282488785E-01  1.4793678043E+00  3.7208566245E+00
                       3.7208566245E+00  1.4793678043E+00  8.7282488785E-01
                       8.7282488785E-01  0.0000000000E+00  7.5041561596E+00
                       1.9453612542E+00  1.3755961537E+00  8.8797523133E+00
                       1.9453612542E+00 -1.3755961537E+00  8.8797523133E+00
                       0.0000000000E+00  0.0000000000E+00  1.0255295549E+01
            xcart      0.0000000000E+00  0.0000000000E+00  0.0000000000E+00
                       4.3404000000E+00  2.7956000000E+00  4.3404000000E+00
                       7.5356300000E+01  0.0000000000E+00  2.6910000000E+00
                       5.9898000000E+00  0.0000000000E+00  5.9898000000E+00
                       1.6494000000E+00  2.7956000000E+00  7.0314000000E+00
                       7.0314000000E+00  2.7956000000E+00  1.6494000000E+00
                       1.6494000000E+00  0.0000000000E+00  1.4180800000E+01
                       3.6762000000E+00  2.5995000000E+00  1.6780300000E+01
                       3.6762000000E+00 -2.5995000000E+00  1.6780300000E+01
                       0.0000000000E+00  0.0000000000E+00  1.9379700000E+01
             xred      0.0000000000E+00  0.0000000000E+00  0.0000000000E+00
                       5.0000000000E-01  3.2204405124E-01  9.6453333333E-02
                       8.6808013086E+00  0.0000000000E+00  5.9800000000E-02
                       6.9000552944E-01  0.0000000000E+00  1.3310666667E-01
                       1.9000552944E-01  3.2204405124E-01  1.5625333333E-01
                       8.0999447056E-01  3.2204405124E-01  3.6653333333E-02
                       1.9000552944E-01  0.0000000000E+00  3.1512888889E-01
                       4.2348631463E-01  2.9945396738E-01  3.7289555556E-01
                       4.2348631463E-01 -2.9945396738E-01  3.7289555556E-01
                       0.0000000000E+00  0.0000000000E+00  4.3066000000E-01
            znucl       22.00000    8.00000   46.00000

================================================================================

- Total cpu        time (s,m,h):        757.7       12.63      0.210
- Total wall clock time (s,m,h):        760.0       12.67      0.211
-
- For major independent code sections, cpu and wall times (sec),
-  as well as % of the time and number of calls for node 0-
-<BEGIN_TIMER mpi_nprocs = 1, omp_nthreads = 1, mpi_rank = 0>
- cpu_time =          757.7, wall_time =          760.0
-
- routine                        cpu     %       wall     %      number of calls  Gflops    Speedup Efficacity
-                                                                  (-1=no count)
- fourwf%(pot)                 208.625  27.5    208.758  27.5           7381      -1.00        1.00       1.00
- projbd                       202.109  26.7    202.396  26.6          11786      -1.00        1.00       1.00
- nonlop(apply)                199.078  26.3    199.302  26.2           7381      -1.00        1.00       1.00
- vtowfk(ssdiag)                36.438   4.8     36.704   4.8             -1      -1.00        0.99       0.99
- fourwf%(den)                  19.953   2.6     19.981   2.6           1200      -1.00        1.00       1.00
- nonlop(forstr)                12.062   1.6     12.153   1.6            120      -1.00        0.99       0.99
- pspini                         8.641   1.1      8.742   1.2              1      -1.00        0.99       0.99
- xc:pot/=fourdp                 4.953   0.7      4.933   0.6             11      -1.00        1.00       1.00
- fourdp                         4.438   0.6      4.420   0.6            131      -1.00        1.00       1.00
- others (104)                   7.922   1.0      7.903   1.0             -1      -1.00        1.00       1.00
-<END_TIMER>
-
- subtotal                     704.219  92.9    705.292  92.8                                  1.00       1.00

- For major independent code sections, cpu and wall times (sec),
- as well as % of the total time and number of calls 

-<BEGIN_TIMER mpi_nprocs = 1, omp_nthreads = 1, mpi_rank = world>
- cpu_time =         757.7, wall_time =         760.0
-
- routine                         cpu     %       wall     %      number of calls Gflops    Speedup Efficacity
-                                                                  (-1=no count)
- fourwf%(pot)                 208.625  27.5    208.758  27.5           7381      -1.00        1.00       1.00
- projbd                       202.109  26.7    202.396  26.6          11786      -1.00        1.00       1.00
- nonlop(apply)                199.078  26.3    199.302  26.2           7381      -1.00        1.00       1.00
- vtowfk(ssdiag)                36.438   4.8     36.704   4.8             -1      -1.00        0.99       0.99
- fourwf%(den)                  19.953   2.6     19.981   2.6           1200      -1.00        1.00       1.00
- nonlop(forstr)                12.062   1.6     12.153   1.6            120      -1.00        0.99       0.99
- pspini                         8.641   1.1      8.742   1.2              1      -1.00        0.99       0.99
- xc:pot/=fourdp                 4.953   0.7      4.933   0.6             11      -1.00        1.00       1.00
- fourdp                         4.438   0.6      4.420   0.6            131      -1.00        1.00       1.00
- others (104)                   7.922   1.0      7.903   1.0             -1      -1.00        1.00       1.00
-<END_TIMER>

- subtotal                     704.219  92.9    705.292  92.8                                  1.00       1.00

================================================================================

 Suggested references for the acknowledgment of ABINIT usage.

 The users of ABINIT have little formal obligations with respect to the ABINIT group
 (those specified in the GNU General Public License, http://www.gnu.org/copyleft/gpl.txt).
 However, it is common practice in the scientific literature,
 to acknowledge the efforts of people that have made the research possible.
 In this spirit, please find below suggested citations of work written by ABINIT developers,
 corresponding to implementations inside of ABINIT that you have used in the present run.
 Note also that it will be of great value to readers of publications presenting these results,
 to read papers enabling them to understand the theoretical formalism and details
 of the ABINIT implementation.
 For information on why they are suggested, see also https://www.abinit.org/about/?text=acknowledgments.
-
- [1] Recent developments in the ABINIT software package.
- Computer Phys. Comm. 205, 106 (2016).
- X.Gonze, F.Jollet, F.Abreu Araujo, D.Adams, B.Amadon, T.Applencourt,
- C.Audouze, J.-M.Beuken, J.Bieder, A.Bokhanchuk, E.Bousquet, F.Bruneval
- D.Caliste, M.Cote, F.Dahm, F.Da Pieve, M.Delaveau, M.Di Gennaro,
- B.Dorado, C.Espejo, G.Geneste, L.Genovese, A.Gerossier, M.Giantomassi,
- Y.Gillet, D.R.Hamann, L.He, G.Jomard, J.Laflamme Janssen, S.Le Roux,
- A.Levitt, A.Lherbier, F.Liu, I.Lukacevic, A.Martin, C.Martins,
- M.J.T.Oliveira, S.Ponce, Y.Pouillon, T.Rangel, G.-M.Rignanese,
- A.H.Romero, B.Rousseau, O.Rubel, A.A.Shukri, M.Stankovski, M.Torrent,
- M.J.Van Setten, B.Van Troeye, M.J.Verstraete, D.Waroquier, J.Wiktor,
- B.Xue, A.Zhou, J.W.Zwanziger.
- Comment : the fourth generic paper describing the ABINIT project.
- Note that a version of this paper, that is not formatted for Computer Phys. Comm. 
- is available at https://www.abinit.org/about/ABINIT16.pdf .
- The licence allows the authors to put it on the Web.
-
- [2] Optimized norm-conserving Vanderbilt pseudopotentials.
- D.R. Hamann, Phys. Rev. B 88, 085117 (2013).
- Comment: Some pseudopotential generated using the ONCVPSP code were used.
-
- [3] ABINIT : First-principles approach of materials and nanosystem properties.
- Computer Phys. Comm. 180, 2582-2615 (2009).
- X. Gonze, B. Amadon, P.-M. Anglade, J.-M. Beuken, F. Bottin, P. Boulanger, F. Bruneval,
- D. Caliste, R. Caracas, M. Cote, T. Deutsch, L. Genovese, Ph. Ghosez, M. Giantomassi
- S. Goedecker, D.R. Hamann, P. Hermet, F. Jollet, G. Jomard, S. Leroux, M. Mancini, S. Mazevet,
- M.J.T. Oliveira, G. Onida, Y. Pouillon, T. Rangel, G.-M. Rignanese, D. Sangalli, R. Shaltaf,
- M. Torrent, M.J. Verstraete, G. Zerah, J.W. Zwanziger
- Comment : the third generic paper describing the ABINIT project.
- Note that a version of this paper, that is not formatted for Computer Phys. Comm. 
- is available at https://www.abinit.org/about/ABINIT_CPC_v10.pdf .
- The licence allows the authors to put it on the Web.
-
- [4] A brief introduction to the ABINIT software package.
- Z. Kristallogr. 220, 558-562 (2005).
- X. Gonze, G.-M. Rignanese, M. Verstraete, J.-M. Beuken, Y. Pouillon, R. Caracas, F. Jollet,
- M. Torrent, G. Zerah, M. Mikami, Ph. Ghosez, M. Veithen, J.-Y. Raty, V. Olevano, F. Bruneval,
- L. Reining, R. Godby, G. Onida, D.R. Hamann, and D.C. Allan.
- Comment : the second generic paper describing the ABINIT project. Note that this paper
- should be cited especially if you are using the GW part of ABINIT, as several authors
- of this part are not in the list of authors of the first or third paper.
- The .pdf of the latter paper is available at https://www.abinit.org/about/zfk_0505-06_558-562.pdf.
- Note that it should not redistributed (Copyright by Oldenburg Wissenshaftverlag,
- the licence allows the authors to put it on the Web).
-
- And optionally:
-
- [5] First-principles computation of material properties : the ABINIT software project. 
- X. Gonze, J.-M. Beuken, R. Caracas, F. Detraux, M. Fuchs, G.-M. Rignanese, L. Sindic,
- M. Verstraete, G. Zerah, F. Jollet, M. Torrent, A. Roy, M. Mikami, Ph. Ghosez, J.-Y. Raty, D.C. Allan.
- Computational Materials Science 25, 478-492 (2002). http://dx.doi.org/10.1016/S0927-0256(02)00325-7
- Comment : the original paper describing the ABINIT project.
-
- Proc.   0 individual time (sec): cpu=        757.7  wall=        760.0

================================================================================

 Calculation completed.
.Delivered   3 WARNINGs and   2 COMMENTs to log file.
+Overall time at end (sec) : cpu=        757.7  wall=        760.0
