  ABINIT 8.6.3
  
  Give name for formatted input file: 
RutileDOS.in
  Give name for formatted output file:
RutileDOS.out
  Give root name for generic input files:
RutileDOS_i
  Give root name for generic output files:
RutileDOS_o
  Give root name for generic temporary files:
RutileDOS

.Version 8.6.3 of ABINIT 
.(sequential version, prepared for a x86_64_linux_gnu5.4 computer) 

.Copyright (C) 1998-2017 ABINIT group . 
 ABINIT comes with ABSOLUTELY NO WARRANTY.
 It is free software, and you are welcome to redistribute it
 under certain conditions (GNU General Public License,
 see ~abinit/COPYING or http://www.gnu.org/copyleft/gpl.txt).

 ABINIT is a project of the Universite Catholique de Louvain,
 Corning Inc. and other collaborators, see ~abinit/doc/developers/contributors.txt .
 Please read ~abinit/doc/users/acknowledgments.html for suggested
 acknowledgments of the ABINIT effort.
 For more information, see https://www.abinit.org .

.Starting date : Fri 27 Apr 2018.
- ( at 21h50 )
  

 ++++++++++++++++++++++++++++++++++++++++++++++++++++++++++++++++++++++++++++++

 === Build Information === 
  Version       : 8.6.3
  Build target  : x86_64_linux_gnu5.4
  Build date    : 20180412

 === Compiler Suite === 
  C compiler       : gnu5.4
  C++ compiler     : gnu5.4
  Fortran compiler : gnu5.4
  CFLAGS           :  -g -O2 -mtune=native -march=native
  CXXFLAGS         :  -g -O2 -mtune=native -march=native
  FCFLAGS          :  -g -ffree-line-length-none
  FC_LDFLAGS       : 

 === Optimizations === 
  Debug level        : basic
  Optimization level : standard
  Architecture       : unknown_unknown

 === Multicore === 
  Parallel build : no
  Parallel I/O   : no
  openMP support : no
  GPU support    : no

 === Connectors / Fallbacks === 
  Connectors on : yes
  Fallbacks on  : yes
  DFT flavor    : none
  FFT flavor    : none
  LINALG flavor : netlib-fallback
  MATH flavor   : none
  TIMER flavor  : abinit
  TRIO flavor   : none

 === Experimental features === 
  Bindings            : @enable_bindings@
  Exports             : no
  GW double-precision : no

 ++++++++++++++++++++++++++++++++++++++++++++++++++++++++++++++++++++++++++++++


 ++++++++++++++++++++++++++++++++++++++++++++++++++++++++++++++++++++++++++++++
 Default optimizations:
   -O2 -mtune=native -march=native


 Optimizations for 20_datashare:
   -O0


 ++++++++++++++++++++++++++++++++++++++++++++++++++++++++++++++++++++++++++++++


 ++++++++++++++++++++++++++++++++++++++++++++++++++++++++++++++++++++++++++++++
 CPP options activated during the build:

                    CC_GNU                   CXX_GNU                    FC_GNU
 
 HAVE_FC_ALLOCATABLE_DT...             HAVE_FC_ASYNC         HAVE_FC_BACKTRACE
 
  HAVE_FC_COMMAND_ARGUMENT      HAVE_FC_COMMAND_LINE        HAVE_FC_CONTIGUOUS
 
           HAVE_FC_CPUTIME              HAVE_FC_EXIT             HAVE_FC_FLUSH
 
             HAVE_FC_GAMMA            HAVE_FC_GETENV   HAVE_FC_IEEE_EXCEPTIONS
 
          HAVE_FC_INT_QUAD             HAVE_FC_IOMSG     HAVE_FC_ISO_C_BINDING
 
  HAVE_FC_ISO_FORTRAN_2008        HAVE_FC_LONG_LINES        HAVE_FC_MOVE_ALLOC
 
           HAVE_FC_PRIVATE         HAVE_FC_PROTECTED         HAVE_FC_STREAM_IO
 
            HAVE_FC_SYSTEM          HAVE_FORTRAN2003        HAVE_LIBPAW_ABINIT
 
      HAVE_LIBTETRA_ABINIT             HAVE_OS_LINUX         HAVE_TIMER_ABINIT
 
              USE_MACROAVE                                                      
 ++++++++++++++++++++++++++++++++++++++++++++++++++++++++++++++++++++++++++++++

- input  file    -> RutileDOS.in
- output file    -> RutileDOS.out
- root for input  files -> RutileDOS_i
- root for output files -> RutileDOS_o

-instrng: 80 lines of input have been read from file RutileDOS.in


 Please give name of formatted atomic psp file
 iofn2 : for atom type 1, psp file is ../../../Psps_for_tests/22ti.pspnc

 Please give name of formatted atomic psp file
 iofn2 : for atom type 2, psp file is ../../../Psps_for_tests/8o.pspnc
  read the values zionpsp=  4.0 , pspcod=   1 , lmax=   2
  read the values zionpsp=  6.0 , pspcod=   1 , lmax=   1

 inpspheads: deduce mpsang = 3, n1xccc = 2501.
 invars1 : treat image number: 1

 symlatt : the Bravais lattice is tP (primitive tetragonal)
  xcart  is defined in input file
 ingeo : takes atomic coordinates from input array xcart
 symfind : exit, nsym=8
   symrel matrices, symafm and tnons are :
   1       1   0   0     0   1   0     0   0   1       1      0.0000  0.0000  0.0000
   2       1   0   0     0  -1   0     0   0  -1       1      0.5000 -0.5000  0.5000
   3      -1   0   0     0   1   0     0   0  -1       1      0.0000  0.0000  0.0000
   4      -1   0   0     0  -1   0     0   0   1       1      0.5000 -0.5000  0.5000
   5       0   0   1     0   1   0     1   0   0       1      0.0000  0.0000  0.0000
   6       0   0   1     0  -1   0    -1   0   0       1      0.5000 -0.5000  0.5000
   7       0   0  -1     0   1   0    -1   0   0       1      0.0000  0.0000  0.0000
   8       0   0  -1     0  -1   0     1   0   0       1      0.5000 -0.5000  0.5000

 symlatt : the Bravais lattice is tP (primitive tetragonal)

 symlatt : the Bravais lattice is tP (primitive tetragonal)
 symspgr : spgroup= 113  P-4 2_1 m   (=D2d^3)
 symspgr : optical characteristics = uniaxial
 Optical axis (in reduced coordinates, real space ) :   0   1   0
 ingeo : angdeg(1:3)=   90.00000000   90.00000000   90.00000000
 invars2: take the default value of fband=  1.25000000E-01
 chkneu : initialized the occupation numbers for occopt=    1, spin-unpolarized or antiferromagnetic case :
  2.00  2.00  2.00  2.00  2.00  2.00  2.00  2.00  2.00  2.00  2.00  2.00
  2.00  2.00  2.00  2.00  0.00
mpi_setup: mkmem  undefined in the input file.Use default mkmem  = nkpt
 mpi_setup: With nkpt_me=8 and mkmem  = 8, ground state wf handled in core.
mpi_setup: mkqmem undefined in the input file.Use default mkqmem = nkpt
 mpi_setup: With nkpt_me=8 and mkqmem = 8, ground state wf handled in core.
mpi_setup: mk1mem undefined in the input file.Use default mk1mem = nkpt
 mpi_setup: With nkpt_me=8 and mk1mem = 8, ground state wf handled in core.
 For input ecut=  6.000000E+01 best grid ngfft=      64      40      64
       max ecut=  6.314446E+01

 ==== FFT mesh ====
  FFT mesh divisions ........................    64   40   64
  Augmented FFT divisions ...................    65   41   64
  FFT algorithm .............................   112
  FFT cache size ............................    16
 getmpw: optimal value of mpw= 9376

 Symmetries : space group P-4 2_1 m (#113); Bravais tP (primitive tetrag.)

 getdim_nloc : deduce lmnmax  =   8, lnmax  =   2,
                      lmnmaxso=   8, lnmaxso=   2.
memory : analysis of memory needs
================================================================================
 Values of the parameters that define the memory need of the present run
     intxc =       0    ionmov =       0      iscf =       7    lmnmax =       2
     lnmax =       2     mgfft =      64  mpssoang =       3    mqgrid =    3027
     natom =       6  nloc_mem =       1    nspden =       1   nspinor =       1
    nsppol =       1      nsym =       8    n1xccc =    2501    ntypat =       2
    occopt =       1   xclevel =       2
-    mband =          17        mffmem =           1         mkmem =           8
       mpw =        9376          nfft =      163840          nkpt =           8
================================================================================
P This job should need less than                      73.770 Mbytes of memory.
  Rough estimation (10% accuracy) of disk space for files :
_ WF disk file :     19.459 Mbytes ; DEN or POT disk file :      1.252 Mbytes.
================================================================================

 Biggest array : f_fftgr(disk), with     20.0020 MBytes.
 memana : allocated an array of     20.002 Mbytes, for testing purposes.
 memana: allocated      73.770Mbytes, for testing purposes. 
 The job will continue.
--------------------------------------------------------------------------------
------------- Echo of variables that govern the present computation ------------
--------------------------------------------------------------------------------
-
- outvars: echo of selected default values                                      
-   iomode0 =  0 , fftalg0 =112 , wfoptalg0 =  0
-
- outvars: echo of global parameters not present in the input file              
-  max_nthreads =    0
-
 -outvars: echo values of preprocessed input variables --------
            acell      8.6808000000E+00  5.5911000000E+00  8.6808000000E+00 Bohr
              amu      4.78800000E+01  1.59994000E+01
           diemac      1.20000000E+01
             ecut      6.00000000E+01 Hartree
-          fftalg         112
           getwfk          -1
              ixc          11
              kpt     -2.50000000E-01  5.00000000E-01  0.00000000E+00
                       5.00000000E-01 -2.50000000E-01  0.00000000E+00
                      -2.50000000E-01 -2.50000000E-01  2.50000000E-01
                      -2.50000000E-01  0.00000000E+00  0.00000000E+00
                       5.00000000E-01  5.00000000E-01  2.50000000E-01
                       0.00000000E+00 -2.50000000E-01  0.00000000E+00
                       5.00000000E-01 -2.50000000E-01  5.00000000E-01
                       5.00000000E-01  0.00000000E+00  2.50000000E-01
         kptrlatt        2   -2    2      0    4    0     -2   -2    2
          kptrlen      2.23644000E+01
P           mkmem           8
            natom           6
            nband          17
            ngfft          64      40      64
             nkpt           8
            nstep          50
             nsym           8
           ntypat           2
              occ      2.000000  2.000000  2.000000  2.000000  2.000000  2.000000
                       2.000000  2.000000  2.000000  2.000000  2.000000  2.000000
                       2.000000  2.000000  2.000000  2.000000  0.000000
           prtdos           2
           shiftk      5.00000000E-01  0.00000000E+00  5.00000000E-01
          spgroup         113
           symrel      1  0  0   0  1  0   0  0  1       1  0  0   0 -1  0   0  0 -1
                      -1  0  0   0  1  0   0  0 -1      -1  0  0   0 -1  0   0  0  1
                       0  0  1   0  1  0   1  0  0       0  0  1   0 -1  0  -1  0  0
                       0  0 -1   0  1  0  -1  0  0       0  0 -1   0 -1  0   1  0  0
            tnons      0.0000000  0.0000000  0.0000000     0.5000000 -0.4999911  0.5000000
                       0.0000000  0.0000000  0.0000000     0.5000000 -0.4999911  0.5000000
                       0.0000000  0.0000000  0.0000000     0.5000000 -0.4999911  0.5000000
                       0.0000000  0.0000000  0.0000000     0.5000000 -0.4999911  0.5000000
           toldfe      1.00000000E-04 Hartree
            typat      1  1  2  2  2  2
              wtk        0.12500    0.12500    0.25000    0.12500    0.12500    0.06250
                         0.06250    0.12500
           xangst      0.0000000000E+00  0.0000000000E+00  0.0000000000E+00
                       2.2968407562E+00  1.4793678043E+00  2.2968407562E+00
                       3.1696656440E+00  0.0000000000E+00  1.4240158683E+00
                       1.4240158683E+00  0.0000000000E+00  3.1696656440E+00
                       8.7282488785E-01  1.4793678043E+00  8.7282488785E-01
                       3.7208566245E+00  1.4793678043E+00  3.7208566245E+00
            xcart      0.0000000000E+00  0.0000000000E+00  0.0000000000E+00
                       4.3404000000E+00  2.7956000000E+00  4.3404000000E+00
                       5.9898000000E+00  0.0000000000E+00  2.6910000000E+00
                       2.6910000000E+00  0.0000000000E+00  5.9898000000E+00
                       1.6494000000E+00  2.7956000000E+00  1.6494000000E+00
                       7.0314000000E+00  2.7956000000E+00  7.0314000000E+00
             xred      0.0000000000E+00  0.0000000000E+00  0.0000000000E+00
                       5.0000000000E-01  5.0000894278E-01  5.0000000000E-01
                       6.9000552944E-01  0.0000000000E+00  3.0999447056E-01
                       3.0999447056E-01  0.0000000000E+00  6.9000552944E-01
                       1.9000552944E-01  5.0000894278E-01  1.9000552944E-01
                       8.0999447056E-01  5.0000894278E-01  8.0999447056E-01
            znucl       22.00000    8.00000

================================================================================

 chkinp: Checking input parameters for consistency.

 chkinp: WARNING -
   Chksymbreak=1 . Found potentially symmetry-breaking value of tnons, 
   which is neither a rational fraction in 1/8th nor in 1/12th :
   for the symmetry number    2
   symrel is   1  0  0  0 -1  0  0  0 -1
   tnons is     5.000000E-01   -4.999911E-01    5.000000E-01
   Please, read the description of the input variable chksymbreak,
   then, if you feel confident, you might switch it to zero, or consult with the forum.

 chkinp: WARNING -
   Chksymbreak=1 . Found potentially symmetry-breaking value of tnons, 
   which is neither a rational fraction in 1/8th nor in 1/12th :
   for the symmetry number    4
   symrel is  -1  0  0  0 -1  0  0  0  1
   tnons is     5.000000E-01   -4.999911E-01    5.000000E-01
   Please, read the description of the input variable chksymbreak,
   then, if you feel confident, you might switch it to zero, or consult with the forum.

 chkinp: WARNING -
   Chksymbreak=1 . Found potentially symmetry-breaking value of tnons, 
   which is neither a rational fraction in 1/8th nor in 1/12th :
   for the symmetry number    6
   symrel is   0  0  1  0 -1  0 -1  0  0
   tnons is     5.000000E-01   -4.999911E-01    5.000000E-01
   Please, read the description of the input variable chksymbreak,
   then, if you feel confident, you might switch it to zero, or consult with the forum.

 chkinp: WARNING -
   Chksymbreak=1 . Found potentially symmetry-breaking value of tnons, 
   which is neither a rational fraction in 1/8th nor in 1/12th :
   for the symmetry number    8
   symrel is   0  0 -1  0 -1  0  1  0  0
   tnons is     5.000000E-01   -4.999911E-01    5.000000E-01
   Please, read the description of the input variable chksymbreak,
   then, if you feel confident, you might switch it to zero, or consult with the forum.
 DATA TYPE INFORMATION: 
 REAL:      Data type name: REAL(DP) 
            Kind value:      8
            Precision:      15
            Smallest nonnegligible quantity relative to 1:  0.22204460E-15
            Smallest positive number:                       0.22250739-307
            Largest representable number:                   0.17976931+309
 INTEGER:   Data type name: INTEGER(default) 
            Kind value: 4
            Bit size:   32
            Largest representable number: 2147483647
 LOGICAL:   Data type name: LOGICAL 
            Kind value: 4
 CHARACTER: Data type name: CHARACTER             Kind value: 1

  ==== OpenMP parallelism is OFF ====
 
  MPI-IO support is OFF

================================================================================
== DATASET  1 ==================================================================
-   nproc =    1


 getdim_nloc : deduce lmnmax  =   8, lnmax  =   2,
                      lmnmaxso=   8, lnmaxso=   2.
 Exchange-correlation functional for the present dataset will be:
  GGA: Perdew-Burke-Ernzerhof functional - ixc=11
 Citation for XC functional:
  J.P.Perdew, K.Burke, M.Ernzerhof, PRL 77, 3865 (1996)

 Unit cell volume ucvol=  4.2132455E+02 bohr^3
 Angles (23,13,12)=  9.00000000E+01  9.00000000E+01  9.00000000E+01 degrees

 getcut: wavevector=  0.0000  0.0000  0.0000  ngfft=  64  40  64
         ecut(hartree)=     60.000   => boxcut(ratio)=   2.05174
- pspini: atom type   1  psp file is ../../../Psps_for_tests/22ti.pspnc
- pspatm: opening atomic psp file    ../../../Psps_for_tests/22ti.pspnc
-  Troullier-Martins psp for element  Ti        Thu Oct 27 17:33:40 EDT 1994
- 22.00000   4.00000    940714                znucl, zion, pspdat
    1    1    2    0      2001   0.00000      pspcod,pspxc,lmax,lloc,mmax,r2well

--- !WARNING
src_file: pspatm.F90
src_line: 402
message: |
    Pseudopotential file pspxc= 1,
    not equal to input ixc= 11.
    These parameters must agree to get the same xc 
    in ABINIT code as in psp construction.
    Action: check psp design or input file.
    Assume experienced user. Execution will continue.
...

    0   5.166   8.509    0   2.4203472        l,e99.0,e99.9,nproj,rcpsp
   0.00000000   0.00000000   0.00000000   0.00000000     rms, ekb1, ekb2, epsatm
    1   2.285   3.944    1   2.9934301        l,e99.0,e99.9,nproj,rcpsp
   0.00000000   0.00000000   0.00000000   0.00000000     rms, ekb1, ekb2, epsatm
    2  20.947  27.069    1   1.9326638        l,e99.0,e99.9,nproj,rcpsp
   0.00000000   0.00000000   0.00000000   0.00000000     rms, ekb1, ekb2, epsatm
    2.82741504495369    0.09256629068341    1.82586447305099   rchrg,fchrg,qchrg
  pspatm : epsatm=   66.67453488
         --- l  ekb(1:nproj) -->
             1    0.915537
             2   -8.015692
 pspatm: atomic psp has been read  and splines computed

- pspini: atom type   2  psp file is ../../../Psps_for_tests/8o.pspnc
- pspatm: opening atomic psp file    ../../../Psps_for_tests/8o.pspnc
-  Troullier-Martins psp for element  O         Thu Oct 27 17:29:57 EDT 1994
-  8.00000   6.00000    940714                znucl, zion, pspdat
    1    1    1    1      2001   0.00000      pspcod,pspxc,lmax,lloc,mmax,r2well

--- !WARNING
src_file: pspatm.F90
src_line: 402
message: |
    Pseudopotential file pspxc= 1,
    not equal to input ixc= 11.
    These parameters must agree to get the same xc 
    in ABINIT code as in psp construction.
    Action: check psp design or input file.
    Assume experienced user. Execution will continue.
...

    0   5.480  16.893    1   1.4482335        l,e99.0,e99.9,nproj,rcpsp
   0.00000000   0.00000000   0.00000000   0.00000000     rms, ekb1, ekb2, epsatm
    1  20.911  28.075    0   1.4482335        l,e99.0,e99.9,nproj,rcpsp
   0.00000000   0.00000000   0.00000000   0.00000000     rms, ekb1, ekb2, epsatm
    0.56990156784787    3.95561236318184    0.63894027514378   rchrg,fchrg,qchrg
  pspatm : epsatm=    1.57752239
         --- l  ekb(1:nproj) -->
             0    5.670783
 pspatm: atomic psp has been read  and splines computed

   4.46909310E+03                                ecore*ucvol(ha*bohr**3)
 ==== Info on pseudopotentials ====
  Norm-conserving pseudopotentials
  Number of pseudopotentials ..    2
  Number of types of atoms   ..    2
  Scalar calculation (no spin-orbit term)
  Nonlocal part applied using Legendre polynomials
  Max number of non-local projectors over l and type   1
  Highest angular momentum +1 .......   3
  Max number of (l,n)   components ..   2
  Max number of (l,m,n) components ..   2

 Pseudo-Core Charge Info: 
   Number of radial points for pseudo-core charge .. 2501
   XC core-correction treatment (optnlxccc) ........    1
   Radius for pseudo-core charge for each type ..... 

  - Atom type    1 has pseudo-core radius ..  8.4822
  - Atom type    2 has pseudo-core radius ..  1.7097

 Info on the Q-grid used for form factors in spline form: 
   Number of q-points for radial functions ffspl ..   3027
   Number of q-points for vlspl ...................   3027
   vloc is computed in Reciprocal Space
   model core charge treated in real-space

  XC functional for type 1 is 1
  Pseudo valence available: no
  XC functional for type 2 is 1
  Pseudo valence available: no

 wfconv:    17 bands initialized randomly with npw=  9370, for ikpt=     1
 wfconv:    17 bands initialized randomly with npw=  9340, for ikpt=     2
 wfconv:    17 bands initialized randomly with npw=  9344, for ikpt=     3
 wfconv:    17 bands initialized randomly with npw=  9362, for ikpt=     4
 wfconv:    17 bands initialized randomly with npw=  9332, for ikpt=     5
 wfconv:    17 bands initialized randomly with npw=  9347, for ikpt=     6
 wfconv:    17 bands initialized randomly with npw=  9376, for ikpt=     7
 wfconv:    17 bands initialized randomly with npw=  9368, for ikpt=     8
_setup2: Arith. and geom. avg. npw (full set) are    9352.688    9352.676
 initro: for itypat=  1, take decay length=      1.2000,
 initro: indeed, coreel=     18.0000, nval=  4 and densty=  0.0000E+00.
 initro: for itypat=  2, take decay length=      0.5000,
 initro: indeed, coreel=      2.0000, nval=  6 and densty=  0.0000E+00.

================================================================================

 getcut: wavevector=  0.0000  0.0000  0.0000  ngfft=  64  40  64
         ecut(hartree)=     60.000   => boxcut(ratio)=   2.05174

 ITER STEP NUMBER     1
 vtorho : nnsclo_now=2, note that nnsclo,dbl_nnsclo,istep=0 0 1
 non-scf iterations; kpt #     1  , k= ( -0.25000  0.50000  0.00000  ), band residuals:
 res:  4.59E+00  6.80E-01  7.91E-01  8.64E-01  6.19E-01  6.29E-01  5.79E-01  5.30E-01
 res:  5.31E-01  5.20E-01  4.39E-01  4.21E-01  5.46E-01  5.23E-01  4.23E-01  3.54E-01
 res:  4.51E-01
 ene: -5.96E-01 -5.52E-01 -5.26E-01 -4.67E-01 -1.52E-01 -1.30E-01 -1.24E-01 -1.02E-01
 ene: -5.51E-02 -4.08E-02 -2.17E-02  2.28E-02  3.79E-02  1.33E-01  2.25E-01  3.28E-01
 ene:  5.17E-01
 res:  1.33E-02  1.35E-02  1.83E-02  2.61E-02  1.81E-02  2.59E-02  1.46E-02  1.50E-02
 res:  2.06E-02  1.93E-02  3.00E-02  4.30E-02  3.30E-02  6.46E-02  1.37E-01  1.67E-01
 res:  1.97E-01
 ene: -7.14E-01 -7.10E-01 -7.05E-01 -7.00E-01 -2.79E-01 -2.65E-01 -2.56E-01 -2.40E-01
 ene: -2.18E-01 -2.11E-01 -2.01E-01 -1.89E-01 -1.68E-01 -1.52E-01 -1.41E-01 -1.18E-01
 ene: -2.22E-02
 vtowfk : number of one-way 3D ffts skipped in vtowfk until now =1
     eigenvalues (hartree) for   17  bands
              after    3 non-SCF iterations with    4 CG line minimizations
 -7.1353E-01 -7.0998E-01 -7.0457E-01 -6.9997E-01 -2.7921E-01 -2.6536E-01
 -2.5631E-01 -2.4027E-01 -2.1771E-01 -2.1071E-01 -2.0090E-01 -1.8927E-01
 -1.6822E-01 -1.5241E-01 -1.4098E-01 -1.1841E-01 -2.2230E-02
 non-scf iterations; kpt #     2  , k= (  0.50000 -0.25000  0.00000  ), band residuals:
 res:  3.97E+00  9.97E-01  9.39E-01  7.22E-01  6.47E-01  6.12E-01  4.92E-01  5.67E-01
 res:  4.79E-01  5.41E-01  5.34E-01  5.34E-01  5.68E-01  4.98E-01  4.90E-01  4.43E-01
 res:  3.76E-01
 ene: -5.73E-01 -5.47E-01 -5.27E-01 -4.60E-01 -1.74E-01 -1.62E-01 -1.48E-01 -1.17E-01
 ene: -9.72E-02 -6.18E-02 -4.40E-02 -8.72E-03  9.28E-03  5.82E-02  1.23E-01  3.21E-01
 ene:  5.41E-01
 res:  1.38E-02  1.12E-02  1.83E-02  3.50E-02  1.45E-02  1.33E-02  1.99E-02  1.42E-02
 res:  2.00E-02  2.13E-02  2.19E-02  2.70E-02  2.37E-02  3.43E-02  8.59E-02  1.28E-01
 res:  2.15E-01
 ene: -7.27E-01 -7.17E-01 -7.02E-01 -6.93E-01 -2.72E-01 -2.70E-01 -2.62E-01 -2.58E-01
 ene: -2.37E-01 -2.17E-01 -1.99E-01 -1.94E-01 -1.73E-01 -1.64E-01 -1.26E-01 -9.01E-02
 ene:  4.05E-02
 vtowfk : number of one-way 3D ffts skipped in vtowfk until now =2
     eigenvalues (hartree) for   17  bands
              after    3 non-SCF iterations with    4 CG line minimizations
 -7.2697E-01 -7.1741E-01 -7.0221E-01 -6.9319E-01 -2.7244E-01 -2.6955E-01
 -2.6250E-01 -2.5759E-01 -2.3703E-01 -2.1741E-01 -1.9923E-01 -1.9442E-01
 -1.7321E-01 -1.6428E-01 -1.2607E-01 -9.0116E-02  4.0544E-02
 non-scf iterations; kpt #     3  , k= ( -0.25000 -0.25000  0.25000  ), band residuals:
 res:  1.20E+00  8.39E-01  9.60E-01  7.39E-01  5.70E-01  6.30E-01  5.54E-01  6.34E-01
 res:  6.03E-01  4.95E-01  4.59E-01  4.70E-01  5.51E-01  4.74E-01  5.18E-01  3.96E-01
 res:  4.78E-01
 ene: -5.84E-01 -5.21E-01 -4.97E-01 -4.40E-01 -1.48E-01 -1.32E-01 -1.15E-01 -8.10E-02
 ene: -6.25E-02 -3.82E-02 -6.86E-03  3.80E-02  9.74E-02  1.27E-01  1.79E-01  3.17E-01
 ene:  4.16E-01
 res:  1.38E-02  1.66E-02  2.12E-02  3.66E-02  1.50E-02  1.91E-02  2.31E-02  2.17E-02
 res:  1.57E-02  2.82E-02  2.57E-02  3.32E-02  4.12E-02  5.96E-02  6.11E-02  1.10E-01
 res:  1.73E-01
 ene: -7.37E-01 -7.11E-01 -7.01E-01 -6.90E-01 -2.88E-01 -2.73E-01 -2.65E-01 -2.49E-01
 ene: -2.32E-01 -2.14E-01 -1.99E-01 -1.81E-01 -1.62E-01 -1.48E-01 -1.27E-01 -1.04E-01
 ene: -5.28E-02
 vtowfk : number of one-way 3D ffts skipped in vtowfk until now =3
     eigenvalues (hartree) for   17  bands
              after    3 non-SCF iterations with    4 CG line minimizations
 -7.3654E-01 -7.1140E-01 -7.0116E-01 -6.9044E-01 -2.8804E-01 -2.7289E-01
 -2.6452E-01 -2.4905E-01 -2.3160E-01 -2.1374E-01 -1.9936E-01 -1.8057E-01
 -1.6180E-01 -1.4776E-01 -1.2665E-01 -1.0378E-01 -5.2772E-02
 non-scf iterations; kpt #     4  , k= ( -0.25000  0.00000  0.00000  ), band residuals:
 res:  1.40E+00  8.55E-01  5.77E-01  8.77E-01  7.10E-01  6.08E-01  6.46E-01  5.47E-01
 res:  6.42E-01  5.17E-01  6.37E-01  5.19E-01  4.52E-01  4.44E-01  4.31E-01  3.99E-01
 res:  4.27E-01
 ene: -5.78E-01 -5.28E-01 -4.94E-01 -4.00E-01 -1.67E-01 -1.51E-01 -1.24E-01 -9.69E-02
 ene: -7.03E-02 -5.46E-02  1.81E-03  1.26E-02  6.94E-02  1.10E-01  1.62E-01  2.60E-01
 ene:  4.20E-01
 res:  1.50E-02  1.71E-02  1.85E-02  4.91E-02  1.77E-02  1.69E-02  2.29E-02  3.11E-02
 res:  2.32E-02  2.21E-02  2.15E-02  2.84E-02  3.66E-02  4.52E-02  9.20E-02  1.11E-01
 res:  2.47E-01
 ene: -7.55E-01 -7.17E-01 -6.95E-01 -6.79E-01 -3.06E-01 -2.97E-01 -2.62E-01 -2.52E-01
 ene: -2.45E-01 -2.03E-01 -1.85E-01 -1.70E-01 -1.34E-01 -1.24E-01 -9.75E-02 -4.61E-02
 ene:  5.59E-02
 vtowfk : number of one-way 3D ffts skipped in vtowfk until now =4
     eigenvalues (hartree) for   17  bands
              after    3 non-SCF iterations with    4 CG line minimizations
 -7.5478E-01 -7.1742E-01 -6.9509E-01 -6.7912E-01 -3.0559E-01 -2.9653E-01
 -2.6155E-01 -2.5197E-01 -2.4451E-01 -2.0342E-01 -1.8517E-01 -1.7015E-01
 -1.3358E-01 -1.2397E-01 -9.7540E-02 -4.6125E-02  5.5932E-02
 non-scf iterations; kpt #     5  , k= (  0.50000  0.50000  0.25000  ), band residuals:
 res:  4.09E+00  9.84E-01  9.14E-01  7.20E-01  6.74E-01  5.61E-01  5.26E-01  6.78E-01
 res:  5.68E-01  5.41E-01  4.80E-01  4.92E-01  4.70E-01  4.39E-01  4.60E-01  3.73E-01
 res:  3.52E-01
 ene: -5.88E-01 -5.67E-01 -5.29E-01 -4.75E-01 -1.50E-01 -1.36E-01 -1.01E-01 -8.68E-02
 ene: -6.90E-02 -4.11E-02 -8.51E-03  1.19E-02  7.23E-02  1.30E-01  2.26E-01  2.70E-01
 ene:  4.53E-01
 res:  1.23E-02  1.53E-02  1.72E-02  2.93E-02  1.54E-02  2.04E-02  1.64E-02  2.65E-02
 res:  2.14E-02  2.80E-02  2.76E-02  2.86E-02  2.75E-02  6.58E-02  1.22E-01  9.95E-02
 res:  2.60E-01
 ene: -7.13E-01 -7.07E-01 -7.05E-01 -7.00E-01 -2.84E-01 -2.75E-01 -2.58E-01 -2.50E-01
 ene: -2.32E-01 -2.14E-01 -1.98E-01 -1.81E-01 -1.51E-01 -1.35E-01 -1.20E-01 -1.14E-01
 ene: -1.17E-02
 vtowfk : number of one-way 3D ffts skipped in vtowfk until now =5
     eigenvalues (hartree) for   17  bands
              after    3 non-SCF iterations with    4 CG line minimizations
 -7.1263E-01 -7.0698E-01 -7.0502E-01 -6.9968E-01 -2.8436E-01 -2.7512E-01
 -2.5811E-01 -2.4997E-01 -2.3239E-01 -2.1361E-01 -1.9758E-01 -1.8107E-01
 -1.5100E-01 -1.3536E-01 -1.2001E-01 -1.1383E-01 -1.1690E-02
 non-scf iterations; kpt #     6  , k= (  0.00000 -0.25000  0.00000  ), band residuals:
 res:  4.25E+00  8.94E-01  8.71E-01  7.52E-01  7.07E-01  6.84E-01  5.52E-01  5.86E-01
 res:  5.00E-01  5.72E-01  5.38E-01  5.11E-01  4.49E-01  5.13E-01  4.87E-01  4.47E-01
 res:  3.84E-01
 ene: -5.99E-01 -5.60E-01 -5.15E-01 -4.37E-01 -1.67E-01 -1.43E-01 -1.24E-01 -9.77E-02
 ene: -7.88E-02 -5.33E-02 -3.27E-02  1.17E-02  4.93E-02  8.74E-02  1.74E-01  2.94E-01
 ene:  3.38E-01
 res:  1.18E-02  1.20E-02  2.07E-02  3.55E-02  1.44E-02  2.13E-02  2.26E-02  2.29E-02
 res:  1.97E-02  2.85E-02  2.02E-02  3.19E-02  3.81E-02  4.95E-02  6.24E-02  1.50E-01
 res:  1.16E-01
 ene: -7.45E-01 -7.07E-01 -7.00E-01 -6.88E-01 -2.86E-01 -2.79E-01 -2.62E-01 -2.53E-01
 ene: -2.48E-01 -2.24E-01 -1.89E-01 -1.72E-01 -1.66E-01 -1.48E-01 -1.01E-01 -6.96E-02
 ene: -3.30E-03
 vtowfk : number of one-way 3D ffts skipped in vtowfk until now =6
     eigenvalues (hartree) for   17  bands
              after    3 non-SCF iterations with    4 CG line minimizations
 -7.4495E-01 -7.0696E-01 -6.9956E-01 -6.8841E-01 -2.8592E-01 -2.7938E-01
 -2.6208E-01 -2.5288E-01 -2.4790E-01 -2.2387E-01 -1.8928E-01 -1.7240E-01
 -1.6553E-01 -1.4755E-01 -1.0053E-01 -6.9636E-02 -3.2974E-03
 non-scf iterations; kpt #     7  , k= (  0.50000 -0.25000  0.50000  ), band residuals:
 res:  3.86E+00  9.30E-01  8.23E-01  6.50E-01  7.35E-01  5.86E-01  6.95E-01  5.22E-01
 res:  4.17E-01  4.87E-01  5.29E-01  4.35E-01  4.84E-01  4.16E-01  3.74E-01  4.08E-01
 res:  4.73E-01
 ene: -5.96E-01 -5.33E-01 -5.17E-01 -4.54E-01 -1.75E-01 -1.38E-01 -1.22E-01 -9.62E-02
 ene: -6.62E-02 -2.86E-02 -4.52E-03  2.19E-02  6.97E-02  1.04E-01  2.16E-01  3.33E-01
 ene:  5.07E-01
 res:  9.99E-03  2.05E-02  2.10E-02  3.20E-02  1.61E-02  1.91E-02  2.46E-02  2.80E-02
 res:  1.36E-02  2.05E-02  2.70E-02  2.69E-02  3.52E-02  4.35E-02  8.46E-02  1.83E-01
 res:  2.19E-01
 ene: -7.24E-01 -7.21E-01 -7.03E-01 -6.90E-01 -2.91E-01 -2.86E-01 -2.76E-01 -2.65E-01
 ene: -2.08E-01 -1.97E-01 -1.72E-01 -1.62E-01 -1.58E-01 -1.50E-01 -1.43E-01 -1.19E-01
 ene: -1.30E-02
 vtowfk : number of one-way 3D ffts skipped in vtowfk until now =7
     eigenvalues (hartree) for   17  bands
              after    3 non-SCF iterations with    4 CG line minimizations
 -7.2433E-01 -7.2106E-01 -7.0278E-01 -6.8969E-01 -2.9143E-01 -2.8649E-01
 -2.7552E-01 -2.6523E-01 -2.0776E-01 -1.9689E-01 -1.7173E-01 -1.6190E-01
 -1.5763E-01 -1.5005E-01 -1.4338E-01 -1.1905E-01 -1.2980E-02
 non-scf iterations; kpt #     8  , k= (  0.50000  0.00000  0.25000  ), band residuals:
 res:  4.10E+00  1.04E+00  9.38E-01  8.33E-01  7.31E-01  6.36E-01  5.42E-01  5.84E-01
 res:  5.24E-01  4.94E-01  5.51E-01  5.33E-01  4.83E-01  5.06E-01  4.13E-01  4.83E-01
 res:  3.48E-01
 ene: -6.07E-01 -5.43E-01 -5.14E-01 -4.83E-01 -1.60E-01 -1.41E-01 -1.23E-01 -7.23E-02
 ene: -4.38E-02 -2.35E-02  1.91E-02  4.03E-02  5.66E-02  1.51E-01  2.16E-01  3.94E-01
 ene:  4.63E-01
 res:  1.11E-02  1.66E-02  1.67E-02  2.74E-02  1.38E-02  1.72E-02  2.58E-02  2.14E-02
 res:  3.01E-02  1.99E-02  2.30E-02  2.81E-02  2.77E-02  3.86E-02  1.11E-01  2.12E-01
 res:  1.42E-01
 ene: -7.40E-01 -7.35E-01 -6.97E-01 -6.93E-01 -3.05E-01 -2.97E-01 -2.61E-01 -2.42E-01
 ene: -2.14E-01 -1.98E-01 -1.71E-01 -1.55E-01 -1.42E-01 -1.30E-01 -1.24E-01 -3.64E-02
 ene:  5.08E-02
 vtowfk : number of one-way 3D ffts skipped in vtowfk until now =8
     eigenvalues (hartree) for   17  bands
              after    3 non-SCF iterations with    4 CG line minimizations
 -7.4022E-01 -7.3532E-01 -6.9725E-01 -6.9267E-01 -3.0532E-01 -2.9727E-01
 -2.6057E-01 -2.4208E-01 -2.1436E-01 -1.9757E-01 -1.7101E-01 -1.5516E-01
 -1.4178E-01 -1.2970E-01 -1.2365E-01 -3.6402E-02  5.0801E-02
 Total charge density [el/Bohr^3]
      Maximum=    9.8137E-01  at reduced coord.    0.3281    0.9250    0.6719
      Minimum=    1.8683E-03  at reduced coord.    0.5000    0.5000    0.5000
   Integrated=    3.2000E+01
 ETOT  1  -74.438045440330    -7.444E+01 2.605E-01 1.608E+03
 scprqt: <Vxc>= -4.0537113E-01 hartree

Simple mixing update:
  residual square of the potential :   735.96723780096761
 scfcv: previous iteration took 07 [s]

 ITER STEP NUMBER     2
 vtorho : nnsclo_now=2, note that nnsclo,dbl_nnsclo,istep=0 0 2
 non-scf iterations; kpt #     1  , k= ( -0.25000  0.50000  0.00000  ), band residuals:
 res:  6.08E-04  1.87E-03  1.95E-03  1.43E-03  4.79E-03  2.88E-03  4.63E-03  4.68E-03
 res:  6.51E-03  3.04E-03  4.67E-03  5.52E-03  6.18E-03  7.13E-03  9.37E-03  1.22E-02
 res:  1.41E-02
 ene: -7.36E-01 -7.35E-01 -7.28E-01 -7.28E-01 -2.79E-01 -2.79E-01 -2.57E-01 -2.56E-01
 ene: -2.30E-01 -2.29E-01 -2.11E-01 -2.09E-01 -1.82E-01 -1.81E-01 -1.77E-01 -1.75E-01
 ene:  6.28E-02
 res:  6.15E-05  1.28E-04  4.49E-05  1.27E-04  1.41E-04  1.54E-04  1.38E-04  4.19E-04
 res:  2.51E-04  5.33E-04  1.88E-04  3.74E-04  3.19E-04  9.51E-04  5.70E-04  1.08E-03
 res:  7.43E-03
 ene: -7.36E-01 -7.36E-01 -7.28E-01 -7.28E-01 -2.80E-01 -2.80E-01 -2.57E-01 -2.57E-01
 ene: -2.31E-01 -2.30E-01 -2.12E-01 -2.12E-01 -1.84E-01 -1.84E-01 -1.79E-01 -1.79E-01
 ene:  4.99E-02
 vtowfk : number of one-way 3D ffts skipped in vtowfk until now =9
     eigenvalues (hartree) for   17  bands
              after    3 non-SCF iterations with    4 CG line minimizations
 -7.3582E-01 -7.3578E-01 -7.2791E-01 -7.2790E-01 -2.8019E-01 -2.8013E-01
 -2.5706E-01 -2.5704E-01 -2.3055E-01 -2.3049E-01 -2.1207E-01 -2.1188E-01
 -1.8412E-01 -1.8373E-01 -1.7910E-01 -1.7886E-01  4.9913E-02
 non-scf iterations; kpt #     2  , k= (  0.50000 -0.25000  0.00000  ), band residuals:
 res:  1.36E-03  1.91E-03  1.38E-03  1.68E-03  4.04E-03  4.17E-03  4.76E-03  4.31E-03
 res:  5.68E-03  4.25E-03  4.87E-03  4.92E-03  3.02E-03  7.66E-03  1.26E-02  2.04E-02
 res:  2.57E-02
 ene: -7.49E-01 -7.49E-01 -7.24E-01 -7.24E-01 -2.76E-01 -2.75E-01 -2.54E-01 -2.53E-01
 ene: -2.37E-01 -2.36E-01 -2.12E-01 -2.11E-01 -1.81E-01 -1.80E-01 -1.54E-01 -1.44E-01
 ene:  9.03E-02
 res:  5.67E-05  1.16E-04  3.28E-05  1.33E-04  7.29E-05  1.29E-04  8.75E-05  2.14E-04
 res:  2.08E-04  4.73E-04  1.03E-04  3.74E-04  2.42E-04  6.51E-04  4.52E-04  2.80E-03
 res:  7.80E-03
 ene: -7.49E-01 -7.49E-01 -7.24E-01 -7.24E-01 -2.76E-01 -2.76E-01 -2.55E-01 -2.55E-01
 ene: -2.38E-01 -2.38E-01 -2.13E-01 -2.13E-01 -1.83E-01 -1.82E-01 -1.56E-01 -1.54E-01
 ene:  7.29E-02
 vtowfk : number of one-way 3D ffts skipped in vtowfk until now =10
     eigenvalues (hartree) for   17  bands
              after    3 non-SCF iterations with    4 CG line minimizations
 -7.4927E-01 -7.4926E-01 -7.2417E-01 -7.2417E-01 -2.7604E-01 -2.7601E-01
 -2.5456E-01 -2.5450E-01 -2.3831E-01 -2.3819E-01 -2.1266E-01 -2.1250E-01
 -1.8251E-01 -1.8227E-01 -1.5617E-01 -1.5449E-01  7.2856E-02
 non-scf iterations; kpt #     3  , k= ( -0.25000 -0.25000  0.25000  ), band residuals:
 res:  7.79E-04  1.27E-03  1.69E-03  1.27E-03  3.83E-03  4.16E-03  7.78E-03  6.77E-03
 res:  4.18E-03  6.89E-03  6.64E-03  9.76E-03  9.04E-03  1.23E-02  1.88E-02  9.71E-03
 res:  1.02E-02
 ene: -7.59E-01 -7.37E-01 -7.25E-01 -7.24E-01 -2.88E-01 -2.73E-01 -2.73E-01 -2.49E-01
 ene: -2.35E-01 -2.19E-01 -2.18E-01 -1.95E-01 -1.86E-01 -1.64E-01 -1.61E-01 -1.46E-01
 ene:  5.94E-02
 res:  7.31E-05  1.10E-04  1.13E-04  9.52E-05  1.02E-04  1.26E-04  1.35E-04  2.49E-04
 res:  2.89E-04  1.65E-04  5.91E-04  5.45E-04  2.28E-04  7.34E-04  1.05E-03  8.32E-04
 res:  7.17E-03
 ene: -7.59E-01 -7.37E-01 -7.25E-01 -7.25E-01 -2.89E-01 -2.74E-01 -2.73E-01 -2.50E-01
 ene: -2.37E-01 -2.21E-01 -2.20E-01 -1.97E-01 -1.88E-01 -1.69E-01 -1.65E-01 -1.49E-01
 ene:  5.04E-02
 vtowfk : number of one-way 3D ffts skipped in vtowfk until now =11
     eigenvalues (hartree) for   17  bands
              after    3 non-SCF iterations with    4 CG line minimizations
 -7.5886E-01 -7.3727E-01 -7.2537E-01 -7.2467E-01 -2.8890E-01 -2.7425E-01
 -2.7334E-01 -2.4957E-01 -2.3655E-01 -2.2052E-01 -2.2031E-01 -1.9718E-01
 -1.8770E-01 -1.6853E-01 -1.6473E-01 -1.4917E-01  5.0442E-02
 non-scf iterations; kpt #     4  , k= ( -0.25000  0.00000  0.00000  ), band residuals:
 res:  1.42E-03  1.14E-03  1.90E-03  2.36E-03  3.64E-03  2.86E-03  4.16E-03  5.76E-03
 res:  5.66E-03  6.01E-03  5.16E-03  2.65E-03  7.78E-03  1.06E-02  1.34E-02  3.49E-02
 res:  3.67E-02
 ene: -7.80E-01 -7.42E-01 -7.20E-01 -7.20E-01 -3.09E-01 -2.86E-01 -2.69E-01 -2.37E-01
 ene: -2.35E-01 -2.17E-01 -2.10E-01 -1.90E-01 -1.60E-01 -1.51E-01 -1.31E-01 -9.85E-02
 ene:  5.64E-02
 res:  1.04E-04  6.44E-05  6.06E-05  2.95E-04  2.25E-04  1.92E-04  1.35E-04  1.97E-04
 res:  3.70E-04  4.34E-04  5.28E-04  3.17E-04  8.51E-04  8.56E-04  1.30E-03  1.38E-02
 res:  5.00E-03
 ene: -7.80E-01 -7.42E-01 -7.21E-01 -7.20E-01 -3.10E-01 -2.87E-01 -2.70E-01 -2.37E-01
 ene: -2.37E-01 -2.19E-01 -2.13E-01 -1.91E-01 -1.65E-01 -1.55E-01 -1.42E-01 -1.36E-01
 ene:  4.00E-02
 vtowfk : number of one-way 3D ffts skipped in vtowfk until now =12
     eigenvalues (hartree) for   17  bands
              after    3 non-SCF iterations with    4 CG line minimizations
 -7.7979E-01 -7.4187E-01 -7.2065E-01 -7.2018E-01 -3.1034E-01 -2.8677E-01
 -2.6964E-01 -2.3743E-01 -2.3730E-01 -2.1939E-01 -2.1277E-01 -1.9070E-01
 -1.6451E-01 -1.5467E-01 -1.4191E-01 -1.3561E-01  3.9964E-02
 non-scf iterations; kpt #     5  , k= (  0.50000  0.50000  0.25000  ), band residuals:
 res:  8.54E-04  1.29E-03  1.61E-03  2.57E-03  2.86E-03  2.86E-03  2.95E-03  6.61E-03
 res:  3.81E-03  1.08E-02  5.26E-03  8.16E-03  9.88E-03  9.27E-03  4.36E-03  1.40E-02
 res:  1.61E-02
 ene: -7.33E-01 -7.33E-01 -7.30E-01 -7.30E-01 -2.91E-01 -2.90E-01 -2.67E-01 -2.66E-01
 ene: -2.26E-01 -2.23E-01 -2.12E-01 -2.10E-01 -1.73E-01 -1.71E-01 -1.55E-01 -1.50E-01
 ene:  4.55E-02
 res:  5.23E-05  1.49E-04  4.44E-05  1.41E-04  1.08E-04  3.31E-04  1.15E-04  2.09E-04
 res:  2.56E-04  5.26E-04  3.40E-04  8.88E-04  3.88E-04  8.08E-04  7.31E-04  1.61E-03
 res:  3.30E-03
 ene: -7.33E-01 -7.33E-01 -7.30E-01 -7.30E-01 -2.92E-01 -2.92E-01 -2.68E-01 -2.67E-01
 ene: -2.26E-01 -2.26E-01 -2.13E-01 -2.13E-01 -1.74E-01 -1.74E-01 -1.57E-01 -1.56E-01
 ene:  3.95E-02
 vtowfk : number of one-way 3D ffts skipped in vtowfk until now =13
     eigenvalues (hartree) for   17  bands
              after    3 non-SCF iterations with    4 CG line minimizations
 -7.3296E-01 -7.3294E-01 -7.3030E-01 -7.3029E-01 -2.9213E-01 -2.9201E-01
 -2.6754E-01 -2.6749E-01 -2.2631E-01 -2.2603E-01 -2.1316E-01 -2.1300E-01
 -1.7447E-01 -1.7413E-01 -1.5661E-01 -1.5604E-01  3.9549E-02
 non-scf iterations; kpt #     6  , k= (  0.00000 -0.25000  0.00000  ), band residuals:
 res:  1.54E-03  1.80E-03  1.44E-03  1.98E-03  5.63E-03  3.24E-03  5.31E-03  3.12E-03
 res:  5.41E-03  3.57E-03  1.10E-02  7.70E-03  6.80E-03  1.28E-02  2.03E-02  3.20E-02
 res:  3.61E-02
 ene: -7.69E-01 -7.29E-01 -7.23E-01 -7.23E-01 -2.95E-01 -2.69E-01 -2.58E-01 -2.54E-01
 ene: -2.53E-01 -2.37E-01 -1.99E-01 -1.90E-01 -1.84E-01 -1.62E-01 -1.50E-01 -1.35E-01
 ene:  6.64E-02
 res:  7.73E-05  5.60E-05  4.52E-05  1.66E-04  1.20E-04  2.56E-04  1.55E-04  1.25E-04
 res:  2.02E-04  2.03E-04  4.35E-04  1.97E-04  9.94E-04  5.27E-04  3.75E-03  2.45E-03
 res:  6.36E-03
 ene: -7.69E-01 -7.29E-01 -7.23E-01 -7.23E-01 -2.96E-01 -2.71E-01 -2.59E-01 -2.54E-01
 ene: -2.54E-01 -2.38E-01 -2.03E-01 -1.91E-01 -1.90E-01 -1.64E-01 -1.63E-01 -1.43E-01
 ene:  5.13E-02
 vtowfk : number of one-way 3D ffts skipped in vtowfk until now =14
     eigenvalues (hartree) for   17  bands
              after    3 non-SCF iterations with    4 CG line minimizations
 -7.6903E-01 -7.2898E-01 -7.2317E-01 -7.2316E-01 -2.9596E-01 -2.7064E-01
 -2.5887E-01 -2.5445E-01 -2.5437E-01 -2.3846E-01 -2.0301E-01 -1.9082E-01
 -1.8992E-01 -1.6423E-01 -1.6253E-01 -1.4296E-01  5.1294E-02
 non-scf iterations; kpt #     7  , k= (  0.50000 -0.25000  0.50000  ), band residuals:
 res:  1.48E-03  1.07E-03  1.32E-03  2.57E-03  6.03E-03  4.03E-03  3.04E-03  5.05E-03
 res:  5.29E-03  7.38E-03  7.92E-03  7.36E-03  1.28E-02  1.39E-02  5.29E-03  1.77E-02
 res:  1.54E-02
 ene: -7.46E-01 -7.46E-01 -7.27E-01 -7.27E-01 -2.88E-01 -2.88E-01 -2.77E-01 -2.76E-01
 ene: -2.11E-01 -2.09E-01 -1.78E-01 -1.77E-01 -1.74E-01 -1.72E-01 -1.71E-01 -1.65E-01
 ene:  6.15E-02
 res:  4.60E-05  7.40E-05  6.44E-05  2.38E-04  1.12E-04  7.79E-05  1.30E-04  2.05E-04
 res:  2.27E-04  4.93E-04  2.72E-04  4.01E-04  6.26E-04  1.25E-03  7.87E-04  2.89E-03
 res:  3.04E-03
 ene: -7.46E-01 -7.46E-01 -7.28E-01 -7.28E-01 -2.89E-01 -2.89E-01 -2.78E-01 -2.78E-01
 ene: -2.12E-01 -2.12E-01 -1.80E-01 -1.79E-01 -1.78E-01 -1.78E-01 -1.73E-01 -1.72E-01
 ene:  5.52E-02
 vtowfk : number of one-way 3D ffts skipped in vtowfk until now =15
     eigenvalues (hartree) for   17  bands
              after    3 non-SCF iterations with    4 CG line minimizations
 -7.4579E-01 -7.4578E-01 -7.2752E-01 -7.2751E-01 -2.8876E-01 -2.8875E-01
 -2.7756E-01 -2.7751E-01 -2.1241E-01 -2.1218E-01 -1.7978E-01 -1.7946E-01
 -1.7838E-01 -1.7795E-01 -1.7294E-01 -1.7243E-01  5.5211E-02
 non-scf iterations; kpt #     8  , k= (  0.50000  0.00000  0.25000  ), band residuals:
 res:  7.47E-04  1.14E-03  1.80E-03  1.46E-03  4.44E-03  4.41E-03  1.00E-02  9.35E-03
 res:  7.23E-03  7.76E-03  3.66E-03  5.74E-03  1.11E-02  9.23E-03  1.98E-02  4.19E-02
 res:  3.54E-02
 ene: -7.60E-01 -7.60E-01 -7.23E-01 -7.22E-01 -2.98E-01 -2.97E-01 -2.38E-01 -2.35E-01
 ene: -2.30E-01 -2.28E-01 -1.90E-01 -1.80E-01 -1.70E-01 -1.66E-01 -1.55E-01 -1.29E-01
 ene:  8.30E-02
 res:  5.68E-05  8.60E-05  4.76E-05  1.36E-04  4.89E-05  2.00E-04  1.55E-04  4.47E-04
 res:  2.75E-04  5.68E-04  4.91E-04  1.56E-03  6.19E-04  9.85E-04  7.87E-04  8.48E-03
 res:  2.12E-02
 ene: -7.60E-01 -7.60E-01 -7.23E-01 -7.23E-01 -2.99E-01 -2.98E-01 -2.39E-01 -2.38E-01
 ene: -2.32E-01 -2.32E-01 -1.92E-01 -1.90E-01 -1.72E-01 -1.72E-01 -1.59E-01 -1.56E-01
 ene:  5.63E-02
 vtowfk : number of one-way 3D ffts skipped in vtowfk until now =16
     eigenvalues (hartree) for   17  bands
              after    3 non-SCF iterations with    4 CG line minimizations
 -7.5989E-01 -7.5989E-01 -7.2279E-01 -7.2278E-01 -2.9857E-01 -2.9849E-01
 -2.3870E-01 -2.3841E-01 -2.3192E-01 -2.3172E-01 -1.9167E-01 -1.8960E-01
 -1.7247E-01 -1.7184E-01 -1.5879E-01 -1.5561E-01  5.6315E-02
 Total charge density [el/Bohr^3]
      Maximum=    1.0500E+00  at reduced coord.    0.7813    0.5000    0.8594
      Minimum=    3.0527E-04  at reduced coord.    0.0000    0.0000    0.0000
   Integrated=    3.2000E+01
 ETOT  2  -74.900205221163    -4.622E-01 2.123E-02 1.312E+03
 scprqt: <Vxc>= -4.0123829E-01 hartree

 Pulay update with  1 previous iterations:
 mixing of old trial potential : alpha(m:m-4)=  0.517      0.483
 scfcv: previous iteration took 07 [s]

 ITER STEP NUMBER     3
 vtorho : nnsclo_now=1, note that nnsclo,dbl_nnsclo,istep=0 0 3
 non-scf iterations; kpt #     1  , k= ( -0.25000  0.50000  0.00000  ), band residuals:
 res:  2.24E-04  2.33E-04  3.28E-04  3.45E-04  9.26E-04  8.98E-04  9.93E-04  1.08E-03
 res:  9.31E-04  9.29E-04  1.51E-03  1.48E-03  1.20E-03  1.75E-03  8.95E-04  1.61E-03
 res:  2.45E-03
 ene: -6.82E-01 -6.82E-01 -6.73E-01 -6.73E-01 -2.52E-01 -2.52E-01 -2.25E-01 -2.25E-01
 ene: -1.95E-01 -1.95E-01 -1.74E-01 -1.74E-01 -1.41E-01 -1.40E-01 -1.33E-01 -1.32E-01
 ene:  1.39E-03
 vtowfk : number of one-way 3D ffts skipped in vtowfk until now =17
     eigenvalues (hartree) for   17  bands
              after    2 non-SCF iterations with    4 CG line minimizations
 -6.8174E-01 -6.8171E-01 -6.7329E-01 -6.7329E-01 -2.5206E-01 -2.5202E-01
 -2.2540E-01 -2.2538E-01 -1.9486E-01 -1.9481E-01 -1.7447E-01 -1.7445E-01
 -1.4060E-01 -1.4043E-01 -1.3307E-01 -1.3248E-01  1.3864E-03
 non-scf iterations; kpt #     2  , k= (  0.50000 -0.25000  0.00000  ), band residuals:
 res:  1.33E-04  1.47E-04  3.21E-04  3.11E-04  8.86E-04  9.08E-04  1.21E-03  1.19E-03
 res:  1.50E-03  1.52E-03  1.28E-03  1.12E-03  2.39E-03  2.46E-03  1.06E-03  1.34E-03
 res:  4.11E-03
 ene: -6.97E-01 -6.97E-01 -6.69E-01 -6.69E-01 -2.44E-01 -2.44E-01 -2.28E-01 -2.28E-01
 ene: -2.07E-01 -2.07E-01 -1.73E-01 -1.73E-01 -1.45E-01 -1.44E-01 -1.05E-01 -1.04E-01
 ene:  2.39E-02
 vtowfk : number of one-way 3D ffts skipped in vtowfk until now =18
     eigenvalues (hartree) for   17  bands
              after    2 non-SCF iterations with    4 CG line minimizations
 -6.9659E-01 -6.9658E-01 -6.6922E-01 -6.6922E-01 -2.4417E-01 -2.4411E-01
 -2.2758E-01 -2.2756E-01 -2.0675E-01 -2.0673E-01 -1.7322E-01 -1.7306E-01
 -1.4456E-01 -1.4431E-01 -1.0470E-01 -1.0390E-01  2.3928E-02
 non-scf iterations; kpt #     3  , k= ( -0.25000 -0.25000  0.25000  ), band residuals:
 res:  1.19E-04  2.26E-04  2.17E-04  3.45E-04  8.62E-04  9.25E-04  9.34E-04  1.37E-03
 res:  1.49E-03  1.01E-03  1.66E-03  1.80E-03  7.36E-04  2.81E-03  1.58E-03  8.78E-04
 res:  2.25E-03
 ene: -7.07E-01 -6.83E-01 -6.70E-01 -6.70E-01 -2.59E-01 -2.46E-01 -2.42E-01 -2.25E-01
 ene: -2.06E-01 -1.88E-01 -1.81E-01 -1.58E-01 -1.42E-01 -1.27E-01 -1.19E-01 -9.40E-02
 ene: -1.82E-03
 vtowfk : number of one-way 3D ffts skipped in vtowfk until now =19
     eigenvalues (hartree) for   17  bands
              after    2 non-SCF iterations with    4 CG line minimizations
 -7.0723E-01 -6.8330E-01 -6.7025E-01 -6.6989E-01 -2.5917E-01 -2.4587E-01
 -2.4243E-01 -2.2457E-01 -2.0559E-01 -1.8792E-01 -1.8086E-01 -1.5850E-01
 -1.4206E-01 -1.2718E-01 -1.1899E-01 -9.3993E-02 -1.8219E-03
 non-scf iterations; kpt #     4  , k= ( -0.25000  0.00000  0.00000  ), band residuals:
 res:  9.75E-05  2.77E-04  2.07E-04  1.07E-04  8.05E-04  1.15E-03  9.65E-04  1.18E-03
 res:  1.41E-03  9.95E-04  7.18E-04  5.25E-04  2.08E-03  1.24E-03  2.63E-03  1.08E-03
 res:  2.43E-03
 ene: -7.30E-01 -6.89E-01 -6.65E-01 -6.64E-01 -2.80E-01 -2.64E-01 -2.39E-01 -2.18E-01
 ene: -2.17E-01 -1.80E-01 -1.71E-01 -1.44E-01 -1.18E-01 -1.05E-01 -9.40E-02 -7.95E-02
 ene: -9.79E-03
 vtowfk : number of one-way 3D ffts skipped in vtowfk until now =20
     eigenvalues (hartree) for   17  bands
              after    2 non-SCF iterations with    4 CG line minimizations
 -7.3046E-01 -6.8891E-01 -6.6481E-01 -6.6381E-01 -2.8031E-01 -2.6448E-01
 -2.3878E-01 -2.1780E-01 -2.1744E-01 -1.8007E-01 -1.7129E-01 -1.4353E-01
 -1.1785E-01 -1.0455E-01 -9.3989E-02 -7.9458E-02 -9.7860E-03
 non-scf iterations; kpt #     5  , k= (  0.50000  0.50000  0.25000  ), band residuals:
 res:  3.13E-04  3.14E-04  2.34E-04  2.47E-04  7.58E-04  6.92E-04  4.87E-04  5.03E-04
 res:  1.75E-03  1.83E-03  1.37E-03  1.40E-03  2.57E-03  1.91E-03  3.40E-04  3.69E-04
 res:  2.59E-03
 ene: -6.79E-01 -6.79E-01 -6.75E-01 -6.75E-01 -2.62E-01 -2.62E-01 -2.32E-01 -2.32E-01
 ene: -2.00E-01 -2.00E-01 -1.75E-01 -1.75E-01 -1.29E-01 -1.29E-01 -1.02E-01 -1.02E-01
 ene: -1.23E-02
 vtowfk : number of one-way 3D ffts skipped in vtowfk until now =21
     eigenvalues (hartree) for   17  bands
              after    2 non-SCF iterations with    4 CG line minimizations
 -6.7898E-01 -6.7897E-01 -6.7549E-01 -6.7548E-01 -2.6232E-01 -2.6224E-01
 -2.3233E-01 -2.3229E-01 -2.0002E-01 -1.9996E-01 -1.7459E-01 -1.7454E-01
 -1.2904E-01 -1.2889E-01 -1.0194E-01 -1.0163E-01 -1.2259E-02
 non-scf iterations; kpt #     6  , k= (  0.00000 -0.25000  0.00000  ), band residuals:
 res:  1.03E-04  3.92E-04  2.26E-04  2.34E-04  6.77E-04  1.20E-03  9.06E-04  1.23E-03
 res:  1.18E-03  5.64E-04  1.28E-03  4.13E-04  3.99E-04  3.27E-03  4.49E-03  1.47E-04
 res:  3.30E-03
 ene: -7.18E-01 -6.75E-01 -6.68E-01 -6.68E-01 -2.64E-01 -2.48E-01 -2.28E-01 -2.28E-01
 ene: -2.28E-01 -2.01E-01 -1.63E-01 -1.44E-01 -1.44E-01 -1.22E-01 -1.21E-01 -8.54E-02
 ene: -3.41E-03
 vtowfk : number of one-way 3D ffts skipped in vtowfk until now =22
     eigenvalues (hartree) for   17  bands
              after    2 non-SCF iterations with    4 CG line minimizations
 -7.1846E-01 -6.7456E-01 -6.6765E-01 -6.6764E-01 -2.6427E-01 -2.4850E-01
 -2.2841E-01 -2.2839E-01 -2.2782E-01 -2.0077E-01 -1.6320E-01 -1.4444E-01
 -1.4436E-01 -1.2219E-01 -1.2118E-01 -8.5357E-02 -3.4125E-03
 non-scf iterations; kpt #     7  , k= (  0.50000 -0.25000  0.50000  ), band residuals:
 res:  2.19E-04  2.29E-04  2.37E-04  2.53E-04  9.34E-04  9.03E-04  9.02E-04  9.02E-04
 res:  1.59E-03  1.45E-03  2.38E-03  2.76E-03  2.58E-03  2.60E-03  1.61E-04  2.38E-04
 res:  1.64E-03
 ene: -6.93E-01 -6.93E-01 -6.73E-01 -6.73E-01 -2.59E-01 -2.59E-01 -2.50E-01 -2.50E-01
 ene: -1.77E-01 -1.77E-01 -1.42E-01 -1.42E-01 -1.38E-01 -1.38E-01 -1.21E-01 -1.21E-01
 ene:  9.56E-03
 vtowfk : number of one-way 3D ffts skipped in vtowfk until now =23
     eigenvalues (hartree) for   17  bands
              after    2 non-SCF iterations with    4 CG line minimizations
 -6.9280E-01 -6.9280E-01 -6.7277E-01 -6.7277E-01 -2.5912E-01 -2.5911E-01
 -2.5026E-01 -2.5021E-01 -1.7736E-01 -1.7727E-01 -1.4196E-01 -1.4167E-01
 -1.3821E-01 -1.3796E-01 -1.2144E-01 -1.2132E-01  9.5594E-03
 non-scf iterations; kpt #     8  , k= (  0.50000  0.00000  0.25000  ), band residuals:
 res:  1.86E-04  1.86E-04  1.65E-04  1.50E-04  1.06E-03  1.03E-03  1.26E-03  1.44E-03
 res:  9.62E-04  8.88E-04  1.84E-03  2.16E-03  5.63E-04  8.08E-04  1.35E-03  1.32E-03
 res:  3.55E-03
 ene: -7.09E-01 -7.09E-01 -6.67E-01 -6.67E-01 -2.72E-01 -2.72E-01 -2.19E-01 -2.19E-01
 ene: -1.94E-01 -1.94E-01 -1.51E-01 -1.51E-01 -1.24E-01 -1.23E-01 -1.09E-01 -1.08E-01
 ene: -2.34E-06
 vtowfk : number of one-way 3D ffts skipped in vtowfk until now =24
     eigenvalues (hartree) for   17  bands
              after    2 non-SCF iterations with    4 CG line minimizations
 -7.0869E-01 -7.0869E-01 -6.6708E-01 -6.6708E-01 -2.7216E-01 -2.7215E-01
 -2.1891E-01 -2.1886E-01 -1.9388E-01 -1.9386E-01 -1.5141E-01 -1.5091E-01
 -1.2372E-01 -1.2327E-01 -1.0852E-01 -1.0799E-01 -2.3396E-06
 Total charge density [el/Bohr^3]
      Maximum=    9.1347E-01  at reduced coord.    0.3594    0.0000    0.7188
      Minimum=    2.8940E-04  at reduced coord.    0.5000    0.5000    0.5000
   Integrated=    3.2000E+01
 ETOT  3  -75.062651685817    -1.624E-01 4.490E-03 2.531E+02
 scprqt: <Vxc>= -4.1180701E-01 hartree

 Pulay update with  2 previous iterations:
 mixing of old trial potential : alpha(m:m-4)=  0.544      0.336      0.120
 scfcv: previous iteration took 03 [s]

 ITER STEP NUMBER     4
 vtorho : nnsclo_now=1, note that nnsclo,dbl_nnsclo,istep=0 0 4
 non-scf iterations; kpt #     1  , k= ( -0.25000  0.50000  0.00000  ), band residuals:
 res:  1.44E-05  1.41E-05  3.92E-05  3.82E-05  5.22E-05  5.38E-05  6.14E-05  5.15E-05
 res:  4.99E-05  5.14E-05  3.81E-05  4.54E-05  7.41E-05  8.61E-05  1.43E-04  6.89E-05
 res:  1.92E-03
 ene: -7.14E-01 -7.14E-01 -7.06E-01 -7.06E-01 -2.74E-01 -2.74E-01 -2.50E-01 -2.50E-01
 ene: -2.20E-01 -2.20E-01 -2.02E-01 -2.02E-01 -1.69E-01 -1.69E-01 -1.61E-01 -1.61E-01
 ene: -7.32E-03
 vtowfk : number of one-way 3D ffts skipped in vtowfk until now =25
     eigenvalues (hartree) for   17  bands
              after    2 non-SCF iterations with    4 CG line minimizations
 -7.1395E-01 -7.1393E-01 -7.0604E-01 -7.0604E-01 -2.7391E-01 -2.7389E-01
 -2.4961E-01 -2.4961E-01 -2.2026E-01 -2.2025E-01 -2.0174E-01 -2.0172E-01
 -1.6856E-01 -1.6853E-01 -1.6064E-01 -1.6061E-01 -7.3180E-03
 non-scf iterations; kpt #     2  , k= (  0.50000 -0.25000  0.00000  ), band residuals:
 res:  3.33E-05  3.65E-05  4.01E-05  4.12E-05  7.09E-05  4.33E-05  6.80E-05  6.54E-05
 res:  7.63E-05  6.88E-05  5.85E-05  3.00E-05  1.25E-04  1.05E-04  6.21E-05  8.58E-05
 res:  2.35E-03
 ene: -7.28E-01 -7.28E-01 -7.02E-01 -7.02E-01 -2.67E-01 -2.67E-01 -2.51E-01 -2.51E-01
 ene: -2.32E-01 -2.32E-01 -2.00E-01 -2.00E-01 -1.71E-01 -1.71E-01 -1.35E-01 -1.35E-01
 ene:  1.43E-02
 vtowfk : number of one-way 3D ffts skipped in vtowfk until now =26
     eigenvalues (hartree) for   17  bands
              after    2 non-SCF iterations with    4 CG line minimizations
 -7.2792E-01 -7.2792E-01 -7.0211E-01 -7.0211E-01 -2.6665E-01 -2.6664E-01
 -2.5098E-01 -2.5098E-01 -2.3179E-01 -2.3179E-01 -1.9956E-01 -1.9955E-01
 -1.7129E-01 -1.7126E-01 -1.3505E-01 -1.3496E-01  1.4261E-02
 non-scf iterations; kpt #     3  , k= ( -0.25000 -0.25000  0.25000  ), band residuals:
 res:  3.13E-05  3.12E-05  3.46E-05  4.30E-05  4.96E-05  5.53E-05  5.11E-05  9.59E-05
 res:  6.47E-05  8.22E-05  6.97E-05  6.43E-05  5.84E-05  1.12E-04  1.00E-04  7.67E-05
 res:  1.73E-03
 ene: -7.38E-01 -7.15E-01 -7.03E-01 -7.03E-01 -2.82E-01 -2.68E-01 -2.65E-01 -2.48E-01
 ene: -2.31E-01 -2.12E-01 -2.08E-01 -1.86E-01 -1.70E-01 -1.55E-01 -1.48E-01 -1.26E-01
 ene: -7.45E-03
 vtowfk : number of one-way 3D ffts skipped in vtowfk until now =27
     eigenvalues (hartree) for   17  bands
              after    2 non-SCF iterations with    4 CG line minimizations
 -7.3801E-01 -7.1544E-01 -7.0306E-01 -7.0273E-01 -2.8189E-01 -2.6819E-01
 -2.6490E-01 -2.4816E-01 -2.3058E-01 -2.1166E-01 -2.0766E-01 -1.8621E-01
 -1.7003E-01 -1.5544E-01 -1.4798E-01 -1.2624E-01 -7.4532E-03
 non-scf iterations; kpt #     4  , k= ( -0.25000  0.00000  0.00000  ), band residuals:
 res:  2.70E-05  3.90E-05  3.57E-05  2.12E-05  4.82E-05  1.28E-04  6.58E-05  1.55E-04
 res:  1.67E-04  4.36E-05  3.75E-05  1.81E-05  2.16E-04  1.16E-04  4.94E-04  4.34E-04
 res:  8.44E-04
 ene: -7.60E-01 -7.21E-01 -6.98E-01 -6.97E-01 -3.02E-01 -2.85E-01 -2.60E-01 -2.41E-01
 ene: -2.41E-01 -2.07E-01 -1.99E-01 -1.74E-01 -1.48E-01 -1.37E-01 -1.27E-01 -1.13E-01
 ene: -1.38E-02
 vtowfk : number of one-way 3D ffts skipped in vtowfk until now =28
     eigenvalues (hartree) for   17  bands
              after    2 non-SCF iterations with    4 CG line minimizations
 -7.6011E-01 -7.2067E-01 -6.9788E-01 -6.9697E-01 -3.0197E-01 -2.8526E-01
 -2.6033E-01 -2.4149E-01 -2.4119E-01 -2.0661E-01 -1.9857E-01 -1.7352E-01
 -1.4751E-01 -1.3681E-01 -1.2715E-01 -1.1283E-01 -1.3823E-02
 non-scf iterations; kpt #     5  , k= (  0.50000  0.50000  0.25000  ), band residuals:
 res:  2.74E-05  2.01E-05  3.48E-05  3.71E-05  3.05E-05  4.52E-05  2.07E-05  2.12E-05
 res:  1.13E-04  1.22E-04  2.93E-05  3.28E-05  1.28E-04  8.88E-05  5.03E-05  6.67E-05
 res:  1.84E-03
 ene: -7.11E-01 -7.11E-01 -7.08E-01 -7.08E-01 -2.84E-01 -2.84E-01 -2.57E-01 -2.57E-01
 ene: -2.24E-01 -2.24E-01 -2.02E-01 -2.02E-01 -1.57E-01 -1.57E-01 -1.34E-01 -1.34E-01
 ene: -1.79E-02
 vtowfk : number of one-way 3D ffts skipped in vtowfk until now =29
     eigenvalues (hartree) for   17  bands
              after    2 non-SCF iterations with    4 CG line minimizations
 -7.1140E-01 -7.1140E-01 -7.0807E-01 -7.0807E-01 -2.8410E-01 -2.8410E-01
 -2.5666E-01 -2.5666E-01 -2.2417E-01 -2.2416E-01 -2.0222E-01 -2.0222E-01
 -1.5713E-01 -1.5709E-01 -1.3402E-01 -1.3396E-01 -1.7930E-02
 non-scf iterations; kpt #     6  , k= (  0.00000 -0.25000  0.00000  ), band residuals:
 res:  3.11E-05  1.96E-05  2.95E-05  3.08E-05  3.18E-05  1.68E-04  7.06E-05  6.87E-05
 res:  6.49E-05  2.00E-05  8.67E-05  4.45E-05  2.54E-05  1.46E-04  1.57E-04  1.10E-04
 res:  1.14E-03
 ene: -7.49E-01 -7.07E-01 -7.01E-01 -7.01E-01 -2.87E-01 -2.70E-01 -2.52E-01 -2.52E-01
 ene: -2.49E-01 -2.27E-01 -1.90E-01 -1.73E-01 -1.73E-01 -1.50E-01 -1.50E-01 -1.18E-01
 ene: -8.78E-03
 vtowfk : number of one-way 3D ffts skipped in vtowfk until now =30
     eigenvalues (hartree) for   17  bands
              after    2 non-SCF iterations with    4 CG line minimizations
 -7.4866E-01 -7.0716E-01 -7.0067E-01 -7.0067E-01 -2.8688E-01 -2.7046E-01
 -2.5164E-01 -2.5164E-01 -2.4928E-01 -2.2705E-01 -1.9050E-01 -1.7317E-01
 -1.7313E-01 -1.5027E-01 -1.5020E-01 -1.1834E-01 -8.7845E-03
 non-scf iterations; kpt #     7  , k= (  0.50000 -0.25000  0.50000  ), band residuals:
 res:  3.34E-05  3.26E-05  3.87E-05  3.99E-05  4.94E-05  5.22E-05  6.25E-05  4.00E-05
 res:  8.50E-05  8.28E-05  1.28E-04  2.19E-04  1.44E-04  9.29E-05  2.95E-05  7.20E-05
 res:  5.30E-04
 ene: -7.24E-01 -7.24E-01 -7.05E-01 -7.05E-01 -2.82E-01 -2.82E-01 -2.73E-01 -2.73E-01
 ene: -2.04E-01 -2.04E-01 -1.69E-01 -1.69E-01 -1.64E-01 -1.64E-01 -1.53E-01 -1.53E-01
 ene:  4.33E-03
 vtowfk : number of one-way 3D ffts skipped in vtowfk until now =31
     eigenvalues (hartree) for   17  bands
              after    2 non-SCF iterations with    4 CG line minimizations
 -7.2445E-01 -7.2445E-01 -7.0538E-01 -7.0538E-01 -2.8184E-01 -2.8183E-01
 -2.7266E-01 -2.7266E-01 -2.0355E-01 -2.0354E-01 -1.6910E-01 -1.6904E-01
 -1.6387E-01 -1.6373E-01 -1.5291E-01 -1.5286E-01  4.3288E-03
 non-scf iterations; kpt #     8  , k= (  0.50000  0.00000  0.25000  ), band residuals:
 res:  3.65E-05  3.62E-05  3.56E-05  3.67E-05  8.59E-05  7.95E-05  1.53E-04  1.37E-04
 res:  5.03E-05  5.61E-05  9.98E-05  1.61E-04  3.74E-05  4.15E-05  1.01E-04  2.01E-04
 res:  2.63E-03
 ene: -7.39E-01 -7.39E-01 -7.00E-01 -7.00E-01 -2.93E-01 -2.93E-01 -2.43E-01 -2.43E-01
 ene: -2.19E-01 -2.19E-01 -1.78E-01 -1.78E-01 -1.55E-01 -1.55E-01 -1.39E-01 -1.39E-01
 ene: -6.95E-03
 vtowfk : number of one-way 3D ffts skipped in vtowfk until now =32
     eigenvalues (hartree) for   17  bands
              after    2 non-SCF iterations with    4 CG line minimizations
 -7.3943E-01 -7.3943E-01 -6.9996E-01 -6.9996E-01 -2.9341E-01 -2.9341E-01
 -2.4256E-01 -2.4254E-01 -2.1879E-01 -2.1879E-01 -1.7827E-01 -1.7820E-01
 -1.5455E-01 -1.5450E-01 -1.3900E-01 -1.3882E-01 -6.9520E-03
 Total charge density [el/Bohr^3]
      Maximum=    9.6980E-01  at reduced coord.    0.7656    0.5000    0.8438
      Minimum=    2.9554E-04  at reduced coord.    0.0000    0.0000    0.0000
   Integrated=    3.2000E+01
 ETOT  4  -75.121062652028    -5.841E-02 2.632E-03 1.158E+01
 scprqt: <Vxc>= -4.0628527E-01 hartree

 Pulay update with  3 previous iterations:
 mixing of old trial potential : alpha(m:m-4)=   1.28     -0.125     -0.465E-01 -0.103
 scfcv: previous iteration took 03 [s]

 ITER STEP NUMBER     5
 vtorho : nnsclo_now=1, note that nnsclo,dbl_nnsclo,istep=0 0 5
 non-scf iterations; kpt #     1  , k= ( -0.25000  0.50000  0.00000  ), band residuals:
 res:  1.05E-06  1.38E-06  2.83E-06  3.45E-06  3.90E-05  4.13E-05  3.30E-05  2.83E-05
 res:  3.12E-05  2.89E-05  2.02E-05  3.44E-05  6.96E-05  8.80E-05  4.28E-05  3.93E-05
 res:  9.97E-04
 ene: -7.09E-01 -7.09E-01 -7.01E-01 -7.01E-01 -2.68E-01 -2.68E-01 -2.44E-01 -2.44E-01
 ene: -2.15E-01 -2.15E-01 -1.96E-01 -1.96E-01 -1.64E-01 -1.64E-01 -1.56E-01 -1.56E-01
 ene:  3.81E-03
 vtowfk : number of one-way 3D ffts skipped in vtowfk until now =33
     eigenvalues (hartree) for   17  bands
              after    2 non-SCF iterations with    4 CG line minimizations
 -7.0930E-01 -7.0929E-01 -7.0139E-01 -7.0139E-01 -2.6831E-01 -2.6830E-01
 -2.4371E-01 -2.4370E-01 -2.1499E-01 -2.1499E-01 -1.9636E-01 -1.9636E-01
 -1.6364E-01 -1.6363E-01 -1.5621E-01 -1.5620E-01  3.8137E-03
 non-scf iterations; kpt #     2  , k= (  0.50000 -0.25000  0.00000  ), band residuals:
 res:  2.00E-06  2.94E-06  3.80E-06  3.48E-06  3.71E-05  4.97E-05  2.83E-05  3.52E-05
 res:  4.43E-05  4.88E-05  2.43E-05  2.74E-05  9.33E-05  1.20E-04  5.44E-05  8.74E-05
 res:  2.31E-03
 ene: -7.23E-01 -7.23E-01 -6.97E-01 -6.97E-01 -2.61E-01 -2.61E-01 -2.45E-01 -2.45E-01
 ene: -2.26E-01 -2.26E-01 -1.95E-01 -1.95E-01 -1.66E-01 -1.66E-01 -1.31E-01 -1.30E-01
 ene:  2.46E-02
 vtowfk : number of one-way 3D ffts skipped in vtowfk until now =34
     eigenvalues (hartree) for   17  bands
              after    2 non-SCF iterations with    4 CG line minimizations
 -7.2328E-01 -7.2328E-01 -6.9746E-01 -6.9746E-01 -2.6080E-01 -2.6080E-01
 -2.4523E-01 -2.4523E-01 -2.2595E-01 -2.2594E-01 -1.9457E-01 -1.9457E-01
 -1.6570E-01 -1.6569E-01 -1.3050E-01 -1.3050E-01  2.4638E-02
 non-scf iterations; kpt #     3  , k= ( -0.25000 -0.25000  0.25000  ), band residuals:
 res:  1.77E-06  2.01E-06  2.52E-06  4.06E-06  4.39E-05  3.31E-05  5.26E-05  3.25E-05
 res:  5.31E-05  6.45E-05  4.15E-05  5.02E-05  4.97E-05  1.12E-04  7.24E-05  2.53E-05
 res:  1.17E-03
 ene: -7.33E-01 -7.11E-01 -6.99E-01 -6.98E-01 -2.76E-01 -2.63E-01 -2.59E-01 -2.42E-01
 ene: -2.25E-01 -2.07E-01 -2.03E-01 -1.81E-01 -1.65E-01 -1.50E-01 -1.43E-01 -1.22E-01
 ene:  4.73E-03
 vtowfk : number of one-way 3D ffts skipped in vtowfk until now =35
     eigenvalues (hartree) for   17  bands
              after    2 non-SCF iterations with    4 CG line minimizations
 -7.3337E-01 -7.1071E-01 -6.9852E-01 -6.9807E-01 -2.7557E-01 -2.6286E-01
 -2.5903E-01 -2.4205E-01 -2.2477E-01 -2.0656E-01 -2.0251E-01 -1.8079E-01
 -1.6538E-01 -1.4999E-01 -1.4286E-01 -1.2218E-01  4.7330E-03
 non-scf iterations; kpt #     4  , k= ( -0.25000  0.00000  0.00000  ), band residuals:
 res:  2.23E-06  3.99E-06  3.36E-06  8.22E-07  4.35E-05  3.91E-05  5.69E-05  2.87E-05
 res:  2.61E-05  2.11E-05  2.52E-05  2.37E-05  1.00E-04  7.34E-05  1.93E-04  7.81E-05
 res:  7.17E-04
 ene: -7.55E-01 -7.16E-01 -6.93E-01 -6.92E-01 -2.96E-01 -2.78E-01 -2.55E-01 -2.35E-01
 ene: -2.35E-01 -2.02E-01 -1.94E-01 -1.69E-01 -1.42E-01 -1.32E-01 -1.23E-01 -1.09E-01
 ene:  1.98E-04
 vtowfk : number of one-way 3D ffts skipped in vtowfk until now =36
     eigenvalues (hartree) for   17  bands
              after    2 non-SCF iterations with    4 CG line minimizations
 -7.5544E-01 -7.1585E-01 -6.9332E-01 -6.9247E-01 -2.9551E-01 -2.7805E-01
 -2.5548E-01 -2.3546E-01 -2.3518E-01 -2.0164E-01 -1.9351E-01 -1.6871E-01
 -1.4243E-01 -1.3192E-01 -1.2289E-01 -1.0902E-01  1.9796E-04
 non-scf iterations; kpt #     5  , k= (  0.50000  0.50000  0.25000  ), band residuals:
 res:  3.76E-06  4.03E-06  2.13E-06  2.49E-06  2.26E-05  2.93E-05  1.50E-05  1.66E-05
 res:  4.09E-05  5.24E-05  2.76E-05  2.82E-05  8.06E-05  1.16E-04  1.30E-05  3.65E-05
 res:  1.27E-03
 ene: -7.07E-01 -7.07E-01 -7.03E-01 -7.03E-01 -2.79E-01 -2.79E-01 -2.51E-01 -2.51E-01
 ene: -2.18E-01 -2.18E-01 -1.97E-01 -1.97E-01 -1.52E-01 -1.52E-01 -1.30E-01 -1.30E-01
 ene: -6.27E-03
 vtowfk : number of one-way 3D ffts skipped in vtowfk until now =37
     eigenvalues (hartree) for   17  bands
              after    2 non-SCF iterations with    4 CG line minimizations
 -7.0673E-01 -7.0673E-01 -7.0344E-01 -7.0344E-01 -2.7875E-01 -2.7875E-01
 -2.5136E-01 -2.5136E-01 -2.1807E-01 -2.1807E-01 -1.9679E-01 -1.9679E-01
 -1.5236E-01 -1.5235E-01 -1.2991E-01 -1.2991E-01 -6.2706E-03
 non-scf iterations; kpt #     6  , k= (  0.00000 -0.25000  0.00000  ), band residuals:
 res:  2.02E-06  6.15E-06  1.62E-06  2.13E-06  3.48E-05  6.64E-05  3.66E-05  4.09E-05
 res:  6.24E-05  1.47E-05  3.63E-05  2.05E-05  5.93E-05  1.06E-04  2.25E-04  3.60E-05
 res:  1.66E-03
 ene: -7.44E-01 -7.02E-01 -6.96E-01 -6.96E-01 -2.81E-01 -2.63E-01 -2.46E-01 -2.46E-01
 ene: -2.45E-01 -2.22E-01 -1.85E-01 -1.69E-01 -1.69E-01 -1.45E-01 -1.45E-01 -1.15E-01
 ene:  3.28E-03
 vtowfk : number of one-way 3D ffts skipped in vtowfk until now =38
     eigenvalues (hartree) for   17  bands
              after    2 non-SCF iterations with    4 CG line minimizations
 -7.4404E-01 -7.0233E-01 -6.9611E-01 -6.9611E-01 -2.8063E-01 -2.6338E-01
 -2.4595E-01 -2.4595E-01 -2.4455E-01 -2.2203E-01 -1.8509E-01 -1.6863E-01
 -1.6863E-01 -1.4463E-01 -1.4461E-01 -1.1479E-01  3.2750E-03
 non-scf iterations; kpt #     7  , k= (  0.50000 -0.25000  0.50000  ), band residuals:
 res:  1.41E-06  1.63E-06  1.55E-06  1.88E-06  4.66E-05  5.12E-05  2.67E-05  3.10E-05
 res:  6.15E-05  6.88E-05  5.78E-05  7.00E-05  1.41E-04  2.58E-04  1.06E-05  3.27E-05
 res:  4.73E-04
 ene: -7.20E-01 -7.20E-01 -7.01E-01 -7.01E-01 -2.75E-01 -2.75E-01 -2.67E-01 -2.67E-01
 ene: -1.98E-01 -1.98E-01 -1.64E-01 -1.64E-01 -1.59E-01 -1.59E-01 -1.48E-01 -1.48E-01
 ene:  1.81E-02
 vtowfk : number of one-way 3D ffts skipped in vtowfk until now =39
     eigenvalues (hartree) for   17  bands
              after    2 non-SCF iterations with    4 CG line minimizations
 -7.1970E-01 -7.1970E-01 -7.0085E-01 -7.0085E-01 -2.7547E-01 -2.7547E-01
 -2.6734E-01 -2.6734E-01 -1.9797E-01 -1.9797E-01 -1.6386E-01 -1.6385E-01
 -1.5885E-01 -1.5881E-01 -1.4822E-01 -1.4821E-01  1.8139E-02
 non-scf iterations; kpt #     8  , k= (  0.50000  0.00000  0.25000  ), band residuals:
 res:  1.90E-06  2.10E-06  1.10E-06  1.10E-06  5.02E-05  7.51E-05  2.44E-05  3.21E-05
 res:  3.04E-05  3.47E-05  8.05E-05  1.09E-04  1.85E-05  5.61E-05  4.37E-05  1.29E-04
 res:  6.88E-04
 ene: -7.35E-01 -7.35E-01 -6.95E-01 -6.95E-01 -2.87E-01 -2.87E-01 -2.37E-01 -2.37E-01
 ene: -2.14E-01 -2.14E-01 -1.73E-01 -1.73E-01 -1.50E-01 -1.50E-01 -1.34E-01 -1.34E-01
 ene:  6.15E-03
 vtowfk : number of one-way 3D ffts skipped in vtowfk until now =40
     eigenvalues (hartree) for   17  bands
              after    2 non-SCF iterations with    4 CG line minimizations
 -7.3467E-01 -7.3467E-01 -6.9545E-01 -6.9545E-01 -2.8661E-01 -2.8661E-01
 -2.3653E-01 -2.3653E-01 -2.1399E-01 -2.1399E-01 -1.7290E-01 -1.7289E-01
 -1.4966E-01 -1.4966E-01 -1.3442E-01 -1.3438E-01  6.1463E-03
 Total charge density [el/Bohr^3]
      Maximum=    9.7511E-01  at reduced coord.    0.3594    0.0000    0.7188
      Minimum=    2.9261E-04  at reduced coord.    0.5000    0.5000    0.5000
   Integrated=    3.2000E+01
 ETOT  5  -75.122678316266    -1.616E-03 2.311E-03 1.024E+01
 scprqt: <Vxc>= -4.0669697E-01 hartree

 Pulay update with  4 previous iterations:
 mixing of old trial potential : alpha(m:m-4)=  0.679      0.364     -0.149E-01 -0.307E-01  0.240E-02
 scfcv: previous iteration took 03 [s]

 ITER STEP NUMBER     6
 vtorho : nnsclo_now=1, note that nnsclo,dbl_nnsclo,istep=0 0 6
 non-scf iterations; kpt #     1  , k= ( -0.25000  0.50000  0.00000  ), band residuals:
 res:  4.24E-07  4.95E-07  7.01E-07  6.78E-07  2.78E-06  2.75E-06  3.04E-06  3.02E-06
 res:  3.28E-06  3.33E-06  2.62E-06  2.88E-06  3.83E-06  4.22E-06  2.88E-06  2.68E-06
 res:  6.16E-04
 ene: -7.09E-01 -7.09E-01 -7.01E-01 -7.01E-01 -2.69E-01 -2.69E-01 -2.44E-01 -2.44E-01
 ene: -2.15E-01 -2.15E-01 -1.97E-01 -1.97E-01 -1.64E-01 -1.64E-01 -1.56E-01 -1.56E-01
 ene: -1.92E-03
 vtowfk : number of one-way 3D ffts skipped in vtowfk until now =41
     eigenvalues (hartree) for   17  bands
              after    2 non-SCF iterations with    4 CG line minimizations
 -7.0892E-01 -7.0892E-01 -7.0103E-01 -7.0103E-01 -2.6869E-01 -2.6868E-01
 -2.4424E-01 -2.4424E-01 -2.1520E-01 -2.1520E-01 -1.9658E-01 -1.9658E-01
 -1.6356E-01 -1.6356E-01 -1.5585E-01 -1.5584E-01 -1.9174E-03
 non-scf iterations; kpt #     2  , k= (  0.50000 -0.25000  0.00000  ), band residuals:
 res:  3.98E-07  3.81E-07  7.34E-07  8.39E-07  3.78E-06  2.87E-06  2.84E-06  2.59E-06
 res:  4.11E-06  4.37E-06  3.59E-06  2.43E-06  2.70E-06  3.14E-06  2.28E-06  3.80E-06
 res:  1.36E-03
 ene: -7.23E-01 -7.23E-01 -6.97E-01 -6.97E-01 -2.61E-01 -2.61E-01 -2.46E-01 -2.46E-01
 ene: -2.26E-01 -2.26E-01 -1.95E-01 -1.95E-01 -1.66E-01 -1.66E-01 -1.30E-01 -1.30E-01
 ene:  1.70E-02
 vtowfk : number of one-way 3D ffts skipped in vtowfk until now =42
     eigenvalues (hartree) for   17  bands
              after    2 non-SCF iterations with    4 CG line minimizations
 -7.2290E-01 -7.2290E-01 -6.9709E-01 -6.9709E-01 -2.6115E-01 -2.6115E-01
 -2.4592E-01 -2.4592E-01 -2.2644E-01 -2.2644E-01 -1.9455E-01 -1.9455E-01
 -1.6607E-01 -1.6607E-01 -1.3013E-01 -1.3013E-01  1.6976E-02
 non-scf iterations; kpt #     3  , k= ( -0.25000 -0.25000  0.25000  ), band residuals:
 res:  4.17E-07  5.35E-07  4.32E-07  9.26E-07  3.89E-06  3.21E-06  3.37E-06  2.78E-06
 res:  3.66E-06  3.19E-06  2.34E-06  3.32E-06  2.09E-06  3.45E-06  3.92E-06  4.41E-06
 res:  6.98E-04
 ene: -7.33E-01 -7.10E-01 -6.98E-01 -6.98E-01 -2.76E-01 -2.63E-01 -2.59E-01 -2.43E-01
 ene: -2.25E-01 -2.07E-01 -2.03E-01 -1.81E-01 -1.65E-01 -1.50E-01 -1.43E-01 -1.22E-01
 ene: -1.68E-03
 vtowfk : number of one-way 3D ffts skipped in vtowfk until now =43
     eigenvalues (hartree) for   17  bands
              after    2 non-SCF iterations with    4 CG line minimizations
 -7.3300E-01 -7.1037E-01 -6.9810E-01 -6.9772E-01 -2.7620E-01 -2.6324E-01
 -2.5938E-01 -2.4295E-01 -2.2526E-01 -2.0675E-01 -2.0259E-01 -1.8108E-01
 -1.6516E-01 -1.5021E-01 -1.4283E-01 -1.2160E-01 -1.6848E-03
 non-scf iterations; kpt #     4  , k= ( -0.25000  0.00000  0.00000  ), band residuals:
 res:  3.71E-07  7.46E-07  4.50E-07  2.99E-07  5.03E-06  3.92E-06  2.29E-06  4.93E-06
 res:  4.86E-06  4.55E-06  3.90E-06  1.80E-06  3.93E-06  5.54E-06  3.50E-05  3.04E-05
 res:  2.20E-04
 ene: -7.55E-01 -7.16E-01 -6.93E-01 -6.92E-01 -2.96E-01 -2.79E-01 -2.55E-01 -2.37E-01
 ene: -2.36E-01 -2.02E-01 -1.94E-01 -1.69E-01 -1.42E-01 -1.32E-01 -1.23E-01 -1.08E-01
 ene: -5.30E-03
 vtowfk : number of one-way 3D ffts skipped in vtowfk until now =44
     eigenvalues (hartree) for   17  bands
              after    2 non-SCF iterations with    4 CG line minimizations
 -7.5510E-01 -7.1556E-01 -6.9289E-01 -6.9200E-01 -2.9604E-01 -2.7916E-01
 -2.5544E-01 -2.3657E-01 -2.3628E-01 -2.0162E-01 -1.9351E-01 -1.6855E-01
 -1.4238E-01 -1.3184E-01 -1.2271E-01 -1.0842E-01 -5.2989E-03
 non-scf iterations; kpt #     5  , k= (  0.50000  0.50000  0.25000  ), band residuals:
 res:  8.40E-07  8.40E-07  3.44E-07  3.62E-07  2.52E-06  2.82E-06  2.79E-06  2.36E-06
 res:  3.07E-06  2.66E-06  3.38E-06  4.05E-06  3.50E-06  3.84E-06  2.73E-06  5.18E-06
 res:  4.67E-04
 ene: -7.06E-01 -7.06E-01 -7.03E-01 -7.03E-01 -2.79E-01 -2.79E-01 -2.51E-01 -2.51E-01
 ene: -2.19E-01 -2.19E-01 -1.97E-01 -1.97E-01 -1.52E-01 -1.52E-01 -1.29E-01 -1.29E-01
 ene: -1.20E-02
 vtowfk : number of one-way 3D ffts skipped in vtowfk until now =45
     eigenvalues (hartree) for   17  bands
              after    2 non-SCF iterations with    4 CG line minimizations
 -7.0639E-01 -7.0639E-01 -7.0305E-01 -7.0305E-01 -2.7894E-01 -2.7894E-01
 -2.5149E-01 -2.5149E-01 -2.1892E-01 -2.1892E-01 -1.9705E-01 -1.9705E-01
 -1.5218E-01 -1.5218E-01 -1.2935E-01 -1.2934E-01 -1.1997E-02
 non-scf iterations; kpt #     6  , k= (  0.00000 -0.25000  0.00000  ), band residuals:
 res:  2.98E-07  1.01E-06  4.18E-07  4.29E-07  3.72E-06  8.47E-06  3.58E-06  3.25E-06
 res:  2.11E-06  1.89E-06  2.75E-06  3.23E-06  2.17E-06  3.80E-06  3.23E-06  7.19E-06
 res:  5.60E-04
 ene: -7.44E-01 -7.02E-01 -6.96E-01 -6.96E-01 -2.81E-01 -2.65E-01 -2.47E-01 -2.47E-01
 ene: -2.44E-01 -2.22E-01 -1.85E-01 -1.68E-01 -1.68E-01 -1.45E-01 -1.45E-01 -1.14E-01
 ene: -3.60E-03
 vtowfk : number of one-way 3D ffts skipped in vtowfk until now =46
     eigenvalues (hartree) for   17  bands
              after    2 non-SCF iterations with    4 CG line minimizations
 -7.4367E-01 -7.0203E-01 -6.9570E-01 -6.9570E-01 -2.8111E-01 -2.6454E-01
 -2.4661E-01 -2.4661E-01 -2.4447E-01 -2.2208E-01 -1.8525E-01 -1.6837E-01
 -1.6836E-01 -1.4492E-01 -1.4491E-01 -1.1395E-01 -3.6035E-03
 non-scf iterations; kpt #     7  , k= (  0.50000 -0.25000  0.50000  ), band residuals:
 res:  4.98E-07  4.90E-07  4.51E-07  4.41E-07  3.64E-06  4.05E-06  3.19E-06  3.11E-06
 res:  3.28E-06  3.46E-06  3.56E-06  3.46E-06  5.15E-06  3.10E-06  8.69E-07  2.77E-06
 res:  7.57E-05
 ene: -7.19E-01 -7.19E-01 -7.00E-01 -7.00E-01 -2.76E-01 -2.76E-01 -2.68E-01 -2.68E-01
 ene: -1.98E-01 -1.98E-01 -1.64E-01 -1.64E-01 -1.59E-01 -1.59E-01 -1.48E-01 -1.48E-01
 ene:  1.33E-02
 vtowfk : number of one-way 3D ffts skipped in vtowfk until now =47
     eigenvalues (hartree) for   17  bands
              after    2 non-SCF iterations with    4 CG line minimizations
 -7.1937E-01 -7.1937E-01 -7.0043E-01 -7.0043E-01 -2.7611E-01 -2.7611E-01
 -2.6772E-01 -2.6772E-01 -1.9837E-01 -1.9837E-01 -1.6414E-01 -1.6414E-01
 -1.5884E-01 -1.5884E-01 -1.4792E-01 -1.4792E-01  1.3252E-02
 non-scf iterations; kpt #     8  , k= (  0.50000  0.00000  0.25000  ), band residuals:
 res:  6.13E-07  5.76E-07  2.49E-07  3.15E-07  3.84E-06  5.46E-06  5.91E-06  4.31E-06
 res:  3.64E-06  4.05E-06  2.91E-06  5.54E-06  1.65E-06  1.97E-06  3.44E-06  7.91E-06
 res:  5.27E-04
 ene: -7.34E-01 -7.34E-01 -6.95E-01 -6.95E-01 -2.87E-01 -2.87E-01 -2.38E-01 -2.38E-01
 ene: -2.14E-01 -2.14E-01 -1.73E-01 -1.73E-01 -1.50E-01 -1.50E-01 -1.34E-01 -1.34E-01
 ene:  2.87E-04
 vtowfk : number of one-way 3D ffts skipped in vtowfk until now =48
     eigenvalues (hartree) for   17  bands
              after    2 non-SCF iterations with    4 CG line minimizations
 -7.3436E-01 -7.3436E-01 -6.9499E-01 -6.9499E-01 -2.8742E-01 -2.8742E-01
 -2.3763E-01 -2.3763E-01 -2.1387E-01 -2.1387E-01 -1.7306E-01 -1.7306E-01
 -1.4953E-01 -1.4953E-01 -1.3410E-01 -1.3409E-01  2.8686E-04
 Total charge density [el/Bohr^3]
      Maximum=    9.7766E-01  at reduced coord.    0.7813    0.5000    0.8594
      Minimum=    2.9474E-04  at reduced coord.    0.0000    0.0000    0.0000
   Integrated=    3.2000E+01
 ETOT  6  -75.123727500991    -1.049E-03 1.358E-03 1.999E+00
 scprqt: <Vxc>= -4.0631412E-01 hartree

 Pulay update with  5 previous iterations:
 mixing of old trial potential : alpha(m:m-4)=   1.05     -0.375E-01 -0.336E-02  0.163E-01 -0.298E-01
 scfcv: previous iteration took 03 [s]

 ITER STEP NUMBER     7
 vtorho : nnsclo_now=1, note that nnsclo,dbl_nnsclo,istep=0 0 7
 non-scf iterations; kpt #     1  , k= ( -0.25000  0.50000  0.00000  ), band residuals:
 res:  3.70E-07  3.74E-07  3.91E-07  4.08E-07  1.69E-06  1.79E-06  1.91E-06  1.95E-06
 res:  1.83E-06  1.86E-06  1.84E-06  2.05E-06  4.39E-06  4.85E-06  4.45E-06  2.79E-06
 res:  3.92E-04
 ene: -7.07E-01 -7.07E-01 -6.99E-01 -6.99E-01 -2.68E-01 -2.68E-01 -2.43E-01 -2.43E-01
 ene: -2.14E-01 -2.14E-01 -1.96E-01 -1.96E-01 -1.62E-01 -1.62E-01 -1.54E-01 -1.54E-01
 ene: -3.85E-03
 vtowfk : number of one-way 3D ffts skipped in vtowfk until now =49
     eigenvalues (hartree) for   17  bands
              after    2 non-SCF iterations with    4 CG line minimizations
 -7.0735E-01 -7.0735E-01 -6.9945E-01 -6.9945E-01 -2.6785E-01 -2.6785E-01
 -2.4345E-01 -2.4345E-01 -2.1420E-01 -2.1420E-01 -1.9553E-01 -1.9553E-01
 -1.6228E-01 -1.6228E-01 -1.5443E-01 -1.5443E-01 -3.8529E-03
 non-scf iterations; kpt #     2  , k= (  0.50000 -0.25000  0.00000  ), band residuals:
 res:  1.43E-07  1.52E-07  4.58E-07  4.38E-07  1.73E-06  1.73E-06  2.21E-06  2.06E-06
 res:  2.10E-06  2.20E-06  1.90E-06  2.03E-06  3.83E-06  4.02E-06  4.11E-06  7.12E-06
 res:  1.80E-03
 ene: -7.21E-01 -7.21E-01 -6.96E-01 -6.96E-01 -2.60E-01 -2.60E-01 -2.45E-01 -2.45E-01
 ene: -2.26E-01 -2.26E-01 -1.93E-01 -1.93E-01 -1.65E-01 -1.65E-01 -1.29E-01 -1.29E-01
 ene:  1.31E-02
 vtowfk : number of one-way 3D ffts skipped in vtowfk until now =50
     eigenvalues (hartree) for   17  bands
              after    2 non-SCF iterations with    4 CG line minimizations
 -7.2136E-01 -7.2136E-01 -6.9551E-01 -6.9551E-01 -2.6022E-01 -2.6022E-01
 -2.4528E-01 -2.4528E-01 -2.2556E-01 -2.2556E-01 -1.9338E-01 -1.9338E-01
 -1.6504E-01 -1.6504E-01 -1.2860E-01 -1.2859E-01  1.3074E-02
 non-scf iterations; kpt #     3  , k= ( -0.25000 -0.25000  0.25000  ), band residuals:
 res:  1.31E-07  3.06E-07  2.81E-07  4.70E-07  1.48E-06  1.67E-06  1.81E-06  2.07E-06
 res:  2.19E-06  2.62E-06  1.65E-06  3.05E-06  3.85E-06  5.30E-06  6.06E-06  3.72E-06
 res:  6.71E-04
 ene: -7.31E-01 -7.09E-01 -6.97E-01 -6.96E-01 -2.75E-01 -2.62E-01 -2.58E-01 -2.42E-01
 ene: -2.24E-01 -2.06E-01 -2.01E-01 -1.80E-01 -1.64E-01 -1.49E-01 -1.42E-01 -1.20E-01
 ene: -4.24E-03
 vtowfk : number of one-way 3D ffts skipped in vtowfk until now =51
     eigenvalues (hartree) for   17  bands
              after    2 non-SCF iterations with    4 CG line minimizations
 -7.3148E-01 -7.0880E-01 -6.9650E-01 -6.9614E-01 -2.7541E-01 -2.6244E-01
 -2.5845E-01 -2.4241E-01 -2.2438E-01 -2.0578E-01 -2.0145E-01 -1.8004E-01
 -1.6381E-01 -1.4908E-01 -1.4150E-01 -1.1994E-01 -4.2393E-03
 non-scf iterations; kpt #     4  , k= ( -0.25000  0.00000  0.00000  ), band residuals:
 res:  7.60E-08  3.89E-07  3.07E-07  1.28E-07  1.31E-06  1.70E-06  1.78E-06  2.44E-06
 res:  2.80E-06  1.42E-06  1.84E-06  1.30E-06  6.61E-06  7.50E-06  2.20E-05  1.17E-05
 res:  4.18E-04
 ene: -7.54E-01 -7.14E-01 -6.91E-01 -6.90E-01 -2.95E-01 -2.79E-01 -2.54E-01 -2.36E-01
 ene: -2.36E-01 -2.00E-01 -1.92E-01 -1.67E-01 -1.41E-01 -1.30E-01 -1.21E-01 -1.07E-01
 ene: -7.03E-03
 vtowfk : number of one-way 3D ffts skipped in vtowfk until now =52
     eigenvalues (hartree) for   17  bands
              after    2 non-SCF iterations with    4 CG line minimizations
 -7.5364E-01 -7.1402E-01 -6.9128E-01 -6.9037E-01 -2.9517E-01 -2.7860E-01
 -2.5442E-01 -2.3619E-01 -2.3589E-01 -2.0046E-01 -1.9233E-01 -1.6720E-01
 -1.4104E-01 -1.3045E-01 -1.2124E-01 -1.0672E-01 -7.0346E-03
 non-scf iterations; kpt #     5  , k= (  0.50000  0.50000  0.25000  ), band residuals:
 res:  5.21E-07  5.24E-07  2.01E-07  2.14E-07  1.39E-06  1.76E-06  1.13E-06  1.14E-06
 res:  2.45E-06  2.48E-06  1.82E-06  1.75E-06  5.47E-06  5.47E-06  1.62E-06  3.82E-06
 res:  3.99E-04
 ene: -7.05E-01 -7.05E-01 -7.01E-01 -7.01E-01 -2.78E-01 -2.78E-01 -2.50E-01 -2.50E-01
 ene: -2.18E-01 -2.18E-01 -1.96E-01 -1.96E-01 -1.51E-01 -1.51E-01 -1.28E-01 -1.28E-01
 ene: -1.39E-02
 vtowfk : number of one-way 3D ffts skipped in vtowfk until now =53
     eigenvalues (hartree) for   17  bands
              after    2 non-SCF iterations with    4 CG line minimizations
 -7.0484E-01 -7.0484E-01 -7.0145E-01 -7.0145E-01 -2.7801E-01 -2.7801E-01
 -2.5049E-01 -2.5049E-01 -2.1830E-01 -2.1830E-01 -1.9602E-01 -1.9602E-01
 -1.5084E-01 -1.5084E-01 -1.2770E-01 -1.2770E-01 -1.3943E-02
 non-scf iterations; kpt #     6  , k= (  0.00000 -0.25000  0.00000  ), band residuals:
 res:  8.29E-08  5.04E-07  2.71E-07  2.73E-07  1.24E-06  2.02E-06  2.23E-06  2.12E-06
 res:  1.52E-06  1.15E-06  2.71E-06  1.87E-06  2.91E-06  4.71E-06  6.87E-06  2.45E-06
 res:  1.19E-03
 ene: -7.42E-01 -7.00E-01 -6.94E-01 -6.94E-01 -2.80E-01 -2.64E-01 -2.46E-01 -2.46E-01
 ene: -2.43E-01 -2.21E-01 -1.84E-01 -1.67E-01 -1.67E-01 -1.44E-01 -1.44E-01 -1.12E-01
 ene: -6.73E-03
 vtowfk : number of one-way 3D ffts skipped in vtowfk until now =54
     eigenvalues (hartree) for   17  bands
              after    2 non-SCF iterations with    4 CG line minimizations
 -7.4217E-01 -7.0047E-01 -6.9410E-01 -6.9410E-01 -2.8023E-01 -2.6405E-01
 -2.4594E-01 -2.4594E-01 -2.4343E-01 -2.2099E-01 -1.8412E-01 -1.6699E-01
 -1.6699E-01 -1.4379E-01 -1.4378E-01 -1.1215E-01 -6.7292E-03
 non-scf iterations; kpt #     7  , k= (  0.50000 -0.25000  0.50000  ), band residuals:
 res:  2.98E-07  3.09E-07  2.68E-07  2.70E-07  1.58E-06  1.59E-06  1.66E-06  1.66E-06
 res:  2.88E-06  3.08E-06  3.49E-06  3.74E-06  4.06E-06  9.28E-06  3.23E-07  9.30E-07
 res:  1.54E-04
 ene: -7.18E-01 -7.18E-01 -6.99E-01 -6.99E-01 -2.75E-01 -2.75E-01 -2.67E-01 -2.67E-01
 ene: -1.97E-01 -1.97E-01 -1.63E-01 -1.63E-01 -1.58E-01 -1.58E-01 -1.46E-01 -1.46E-01
 ene:  1.20E-02
 vtowfk : number of one-way 3D ffts skipped in vtowfk until now =55
     eigenvalues (hartree) for   17  bands
              after    2 non-SCF iterations with    4 CG line minimizations
 -7.1783E-01 -7.1783E-01 -6.9884E-01 -6.9884E-01 -2.7532E-01 -2.7532E-01
 -2.6693E-01 -2.6693E-01 -1.9742E-01 -1.9742E-01 -1.6313E-01 -1.6313E-01
 -1.5763E-01 -1.5763E-01 -1.4644E-01 -1.4644E-01  1.1986E-02
 non-scf iterations; kpt #     8  , k= (  0.50000  0.00000  0.25000  ), band residuals:
 res:  2.34E-07  2.35E-07  2.27E-07  2.25E-07  1.78E-06  1.65E-06  2.58E-06  2.39E-06
 res:  1.90E-06  2.12E-06  3.78E-06  5.17E-06  1.80E-06  3.74E-06  3.92E-06  7.44E-06
 res:  2.59E-04
 ene: -7.33E-01 -7.33E-01 -6.93E-01 -6.93E-01 -2.87E-01 -2.87E-01 -2.37E-01 -2.37E-01
 ene: -2.13E-01 -2.13E-01 -1.72E-01 -1.72E-01 -1.48E-01 -1.48E-01 -1.33E-01 -1.33E-01
 ene: -1.56E-03
 vtowfk : number of one-way 3D ffts skipped in vtowfk until now =56
     eigenvalues (hartree) for   17  bands
              after    2 non-SCF iterations with    4 CG line minimizations
 -7.3286E-01 -7.3286E-01 -6.9337E-01 -6.9337E-01 -2.8670E-01 -2.8670E-01
 -2.3724E-01 -2.3724E-01 -2.1269E-01 -2.1269E-01 -1.7193E-01 -1.7193E-01
 -1.4815E-01 -1.4815E-01 -1.3262E-01 -1.3262E-01 -1.5566E-03
 Total charge density [el/Bohr^3]
      Maximum=    9.7091E-01  at reduced coord.    0.3594    0.0000    0.7188
      Minimum=    2.9759E-04  at reduced coord.    0.5000    0.5000    0.5000
   Integrated=    3.2000E+01
 ETOT  7  -75.124068264976    -3.408E-04 1.801E-03 6.233E-01
 scprqt: <Vxc>= -4.0675628E-01 hartree

 Pulay update with  6 previous iterations:
 mixing of old trial potential : alpha(m:m-4)=  0.803      0.199      0.616E-03  0.103E-02 -0.945E-02
 scfcv: previous iteration took 03 [s]

 ITER STEP NUMBER     8
 vtorho : nnsclo_now=1, note that nnsclo,dbl_nnsclo,istep=0 0 8
 non-scf iterations; kpt #     1  , k= ( -0.25000  0.50000  0.00000  ), band residuals:
 res:  2.76E-08  2.79E-08  4.64E-08  4.47E-08  8.87E-08  9.64E-08  1.62E-07  1.72E-07
 res:  7.87E-08  8.27E-08  1.08E-07  1.06E-07  1.32E-07  1.26E-07  2.12E-07  1.75E-07
 res:  2.67E-04
 ene: -7.08E-01 -7.08E-01 -7.01E-01 -7.01E-01 -2.69E-01 -2.69E-01 -2.44E-01 -2.44E-01
 ene: -2.15E-01 -2.15E-01 -1.96E-01 -1.96E-01 -1.63E-01 -1.63E-01 -1.55E-01 -1.55E-01
 ene: -4.24E-03
 vtowfk : number of one-way 3D ffts skipped in vtowfk until now =57
     eigenvalues (hartree) for   17  bands
              after    2 non-SCF iterations with    4 CG line minimizations
 -7.0840E-01 -7.0840E-01 -7.0051E-01 -7.0051E-01 -2.6855E-01 -2.6855E-01
 -2.4416E-01 -2.4416E-01 -2.1499E-01 -2.1499E-01 -1.9636E-01 -1.9636E-01
 -1.6319E-01 -1.6319E-01 -1.5539E-01 -1.5538E-01 -4.2395E-03
 non-scf iterations; kpt #     2  , k= (  0.50000 -0.25000  0.00000  ), band residuals:
[...]
     eigenvalues (hartree) for   17  bands
              after    2 non-SCF iterations with    4 CG line minimizations
 -7.5449E-01 -7.1491E-01 -6.9222E-01 -6.9131E-01 -2.9570E-01 -2.7897E-01
 -2.5502E-01 -2.3648E-01 -2.3619E-01 -2.0115E-01 -1.9304E-01 -1.6800E-01
 -1.4183E-01 -1.3128E-01 -1.2214E-01 -1.0774E-01 -7.4672E-03
 non-scf iterations; kpt #     5  , k= (  0.50000  0.50000  0.25000  ), band residuals:
 res:  1.46E-10  1.42E-10  6.93E-11  6.97E-11  6.86E-10  5.44E-10  6.96E-10  6.89E-10
 res:  2.11E-09  2.25E-09  1.12E-09  1.05E-09  1.84E-09  2.18E-09  9.17E-09  2.83E-08
 res:  6.53E-05
 ene: -7.06E-01 -7.06E-01 -7.02E-01 -7.02E-01 -2.79E-01 -2.79E-01 -2.51E-01 -2.51E-01
 ene: -2.19E-01 -2.19E-01 -1.97E-01 -1.97E-01 -1.52E-01 -1.52E-01 -1.29E-01 -1.29E-01
 ene: -1.41E-02
 vtowfk : number of one-way 3D ffts skipped in vtowfk until now =77
     eigenvalues (hartree) for   17  bands
              after    2 non-SCF iterations with    4 CG line minimizations
 -7.0575E-01 -7.0575E-01 -7.0238E-01 -7.0238E-01 -2.7857E-01 -2.7857E-01
 -2.5110E-01 -2.5110E-01 -2.1870E-01 -2.1870E-01 -1.9665E-01 -1.9665E-01
 -1.5163E-01 -1.5163E-01 -1.2866E-01 -1.2866E-01 -1.4144E-02
 non-scf iterations; kpt #     6  , k= (  0.00000 -0.25000  0.00000  ), band residuals:
 res:  1.15E-10  1.59E-10  1.20E-10  1.41E-10  5.40E-10  9.36E-10  1.12E-09  1.14E-09
 res:  9.59E-10  4.79E-10  1.24E-09  1.03E-09  1.54E-09  5.57E-09  6.11E-09  5.87E-08
 res:  2.32E-04
 ene: -7.43E-01 -7.01E-01 -6.95E-01 -6.95E-01 -2.81E-01 -2.64E-01 -2.46E-01 -2.46E-01
 ene: -2.44E-01 -2.22E-01 -1.85E-01 -1.68E-01 -1.68E-01 -1.44E-01 -1.44E-01 -1.13E-01
 ene: -9.36E-03
 vtowfk : number of one-way 3D ffts skipped in vtowfk until now =78
     eigenvalues (hartree) for   17  bands
              after    2 non-SCF iterations with    4 CG line minimizations
 -7.4305E-01 -7.0138E-01 -6.9503E-01 -6.9503E-01 -2.8077E-01 -2.6439E-01
 -2.4638E-01 -2.4638E-01 -2.4404E-01 -2.2165E-01 -1.8479E-01 -1.6780E-01
 -1.6780E-01 -1.4446E-01 -1.4446E-01 -1.1320E-01 -9.3627E-03
 non-scf iterations; kpt #     7  , k= (  0.50000 -0.25000  0.50000  ), band residuals:
 res:  8.75E-11  8.82E-11  1.23E-10  1.33E-10  8.17E-10  7.89E-10  1.00E-09  1.17E-09
 res:  2.09E-09  1.96E-09  4.90E-09  5.26E-09  4.63E-09  1.28E-08  1.36E-09  8.31E-09
 res:  3.87E-05
 ene: -7.19E-01 -7.19E-01 -7.00E-01 -7.00E-01 -2.76E-01 -2.76E-01 -2.67E-01 -2.67E-01
 ene: -1.98E-01 -1.98E-01 -1.64E-01 -1.64E-01 -1.58E-01 -1.58E-01 -1.47E-01 -1.47E-01
 ene:  1.22E-02
 vtowfk : number of one-way 3D ffts skipped in vtowfk until now =79
     eigenvalues (hartree) for   17  bands
              after    2 non-SCF iterations with    4 CG line minimizations
 -7.1873E-01 -7.1873E-01 -6.9976E-01 -6.9976E-01 -2.7582E-01 -2.7582E-01
 -2.6743E-01 -2.6743E-01 -1.9800E-01 -1.9800E-01 -1.6375E-01 -1.6375E-01
 -1.5835E-01 -1.5835E-01 -1.4731E-01 -1.4731E-01  1.2198E-02
 non-scf iterations; kpt #     8  , k= (  0.50000  0.00000  0.25000  ), band residuals:
 res:  6.18E-11  6.20E-11  7.01E-11  6.89E-11  8.03E-10  9.61E-10  1.26E-09  8.26E-10
 res:  1.05E-09  1.05E-09  2.91E-09  3.49E-09  1.45E-09  1.69E-09  6.36E-09  1.55E-08
 res:  1.60E-04
 ene: -7.34E-01 -7.34E-01 -6.94E-01 -6.94E-01 -2.87E-01 -2.87E-01 -2.38E-01 -2.38E-01
 ene: -2.13E-01 -2.13E-01 -1.73E-01 -1.73E-01 -1.49E-01 -1.49E-01 -1.33E-01 -1.33E-01
 ene: -1.99E-03
 vtowfk : number of one-way 3D ffts skipped in vtowfk until now =80
     eigenvalues (hartree) for   17  bands
              after    2 non-SCF iterations with    4 CG line minimizations
 -7.3374E-01 -7.3374E-01 -6.9431E-01 -6.9431E-01 -2.8715E-01 -2.8715E-01
 -2.3754E-01 -2.3754E-01 -2.1338E-01 -2.1338E-01 -1.7260E-01 -1.7260E-01
 -1.4896E-01 -1.4896E-01 -1.3349E-01 -1.3349E-01 -1.9941E-03
 Total charge density [el/Bohr^3]
      Maximum=    9.7349E-01  at reduced coord.    0.3594    0.0000    0.7188
      Minimum=    2.9756E-04  at reduced coord.    0.0000    0.0000    0.0000
   Integrated=    3.2000E+01
 ETOT 10  -75.124205135483    -1.041E-06 7.035E-04 4.060E-04
 scprqt: <Vxc>= -4.0654367E-01 hartree

 At SCF step   10, etot is converged : 
  for the second time, diff in etot=  1.041E-06 < toldfe=  1.000E-04

 Cartesian components of stress tensor (hartree/bohr^3)
  sigma(1 1)= -1.52868468E-03  sigma(3 2)=  0.00000000E+00
  sigma(2 2)= -2.24503657E-03  sigma(3 1)=  0.00000000E+00
  sigma(3 3)= -1.52868468E-03  sigma(2 1)=  0.00000000E+00

 fftdatar_write: About to write data to: RutileDOS_o_DEN with iomode IO_MODE_FORTRAN
 IO operation completed. cpu_time:       0.0 [s], walltime:       0.0 [s]
 tetrahedron : integrate to  3.40000000E+01
 tetrahedron: cpu_time:     0.05[s], walltime:     0.06 [s]
================================================================================

 ----iterations are completed or convergence reached----


 === Gap info ===
  >>>> For spin  1
   Minimum optical gap =   2.7285 [eV], located at k-point      :  -0.2500  0.0000  0.0000
   Fundamental gap     =   2.5468 [eV], Top of valence bands at :  -0.2500  0.0000  0.0000
                                        Bottom of conduction at :   0.5000  0.5000  0.2500
 Mean square residual over all n,k,spin=   1.2575E-05; max=  7.0350E-04
  -0.2500  0.5000  0.0000    1  1.16930E-04 kpt; spin; max resid(k); each band:
  1.46E-10 1.44E-10 1.44E-10 1.43E-10 6.92E-10 6.58E-10 1.09E-09 1.13E-09
  1.21E-09 1.17E-09 1.00E-09 1.29E-09 1.64E-09 1.26E-09 3.26E-09 3.90E-09
  1.17E-04
   0.5000 -0.2500  0.0000    1  7.03498E-04 kpt; spin; max resid(k); each band:
  2.42E-11 3.55E-11 1.74E-10 1.32E-10 8.51E-10 7.31E-10 1.76E-09 1.85E-09
  1.34E-09 1.47E-09 9.95E-10 1.06E-09 5.70E-09 4.27E-09 1.26E-09 2.01E-09
  7.03E-04
  -0.2500 -0.2500  0.2500    1  2.73705E-04 kpt; spin; max resid(k); each band:
  6.31E-11 8.39E-11 1.30E-10 1.64E-10 7.50E-10 1.18E-09 9.98E-10 1.63E-09
  1.46E-09 3.32E-09 1.10E-09 1.47E-09 1.71E-09 3.55E-09 1.90E-09 1.98E-08
  2.74E-04
  -0.2500  0.0000  0.0000    1  1.18882E-04 kpt; spin; max resid(k); each band:
  1.03E-10 1.27E-10 1.58E-10 5.29E-11 7.21E-10 8.85E-10 8.59E-10 1.30E-09
  7.79E-10 8.83E-10 1.12E-09 3.91E-10 6.47E-09 6.98E-09 2.64E-07 3.73E-07
  1.19E-04
   0.5000  0.5000  0.2500    1  6.53229E-05 kpt; spin; max resid(k); each band:
  1.46E-10 1.42E-10 6.93E-11 6.97E-11 6.86E-10 5.44E-10 6.96E-10 6.89E-10
  2.11E-09 2.25E-09 1.12E-09 1.05E-09 1.84E-09 2.18E-09 9.17E-09 2.83E-08
  6.53E-05
   0.0000 -0.2500  0.0000    1  2.31801E-04 kpt; spin; max resid(k); each band:
  1.15E-10 1.59E-10 1.20E-10 1.41E-10 5.40E-10 9.36E-10 1.12E-09 1.14E-09
  9.59E-10 4.79E-10 1.24E-09 1.03E-09 1.54E-09 5.57E-09 6.11E-09 5.87E-08
  2.32E-04
   0.5000 -0.2500  0.5000    1  3.87238E-05 kpt; spin; max resid(k); each band:
  8.75E-11 8.82E-11 1.23E-10 1.33E-10 8.17E-10 7.89E-10 1.00E-09 1.17E-09
  2.09E-09 1.96E-09 4.90E-09 5.26E-09 4.63E-09 1.28E-08 1.36E-09 8.31E-09
  3.87E-05
   0.5000  0.0000  0.2500    1  1.60428E-04 kpt; spin; max resid(k); each band:
  6.18E-11 6.20E-11 7.01E-11 6.89E-11 8.03E-10 9.61E-10 1.26E-09 8.26E-10
  1.05E-09 1.05E-09 2.91E-09 3.49E-09 1.45E-09 1.69E-09 6.36E-09 1.55E-08
  1.60E-04

 outwf: write wavefunction to file RutileDOS_o_WFK, with iomode -1
 outwf with iomode: -1, cpu_time:     0.06[s], walltime:     0.09 [s]
 prteigrs : about to open file RutileDOS_o_EIG
 Fermi (or HOMO) energy (hartree) =  -0.10774   Average Vxc (hartree)=  -0.40654
 Eigenvalues (hartree) for nkpt=   8  k points:
 kpt#   1, nband= 17, wtk=  0.12500, kpt= -0.2500  0.5000  0.0000 (reduced coord)
  -0.70827   -0.70827   -0.70037   -0.70037   -0.26836   -0.26836   -0.24395   -0.24395
  -0.21481   -0.21481   -0.19617   -0.19617   -0.16304   -0.16304   -0.15526   -0.15525
  -0.00447
 kpt#   2, nband= 17, wtk=  0.12500, kpt=  0.5000 -0.2500  0.0000 (reduced coord)
  -0.72226   -0.72226   -0.69643   -0.69643   -0.26079   -0.26079   -0.24570   -0.24570
  -0.22611   -0.22611   -0.19408   -0.19408   -0.16566   -0.16566   -0.12949   -0.12949
   0.00718
 kpt#   3, nband= 17, wtk=  0.25000, kpt= -0.2500 -0.2500  0.2500 (reduced coord)
  -0.73236   -0.70971   -0.69743   -0.69706   -0.27591   -0.26294   -0.25901   -0.24278
  -0.22493   -0.20637   -0.20213   -0.18067   -0.16461   -0.14976   -0.14228   -0.12091
  -0.00606
 kpt#   4, nband= 17, wtk=  0.12500, kpt= -0.2500  0.0000  0.0000 (reduced coord)
  -0.75449   -0.71491   -0.69222   -0.69131   -0.29570   -0.27897   -0.25502   -0.23648
  -0.23619   -0.20115   -0.19304   -0.16800   -0.14183   -0.13128   -0.12214   -0.10774
  -0.00747
 kpt#   5, nband= 17, wtk=  0.12500, kpt=  0.5000  0.5000  0.2500 (reduced coord)
  -0.70575   -0.70575   -0.70238   -0.70238   -0.27857   -0.27857   -0.25110   -0.25110
  -0.21870   -0.21870   -0.19665   -0.19665   -0.15163   -0.15163   -0.12866   -0.12866
  -0.01414
 kpt#   6, nband= 17, wtk=  0.06250, kpt=  0.0000 -0.2500  0.0000 (reduced coord)
  -0.74305   -0.70138   -0.69503   -0.69503   -0.28077   -0.26439   -0.24638   -0.24638
  -0.24404   -0.22165   -0.18479   -0.16780   -0.16780   -0.14446   -0.14446   -0.11320
  -0.00936
 kpt#   7, nband= 17, wtk=  0.06250, kpt=  0.5000 -0.2500  0.5000 (reduced coord)
  -0.71873   -0.71873   -0.69976   -0.69976   -0.27582   -0.27582   -0.26743   -0.26743
  -0.19800   -0.19800   -0.16375   -0.16375   -0.15835   -0.15835   -0.14731   -0.14731
   0.01220
 kpt#   8, nband= 17, wtk=  0.12500, kpt=  0.5000  0.0000  0.2500 (reduced coord)
  -0.73374   -0.73374   -0.69431   -0.69431   -0.28715   -0.28715   -0.23754   -0.23754
  -0.21338   -0.21338   -0.17260   -0.17260   -0.14896   -0.14896   -0.13349   -0.13349
  -0.00199
 Total charge density [el/Bohr^3]
      Maximum=    9.7349E-01  at reduced coord.    0.3594    0.0000    0.7188
 Next maximum=    9.7349E-01  at reduced coord.    0.2813    0.0000    0.6406
      Minimum=    2.9756E-04  at reduced coord.    0.0000    0.0000    0.0000
 Next minimum=    2.9756E-04  at reduced coord.    0.5000    0.5000    0.5000
   Integrated=    3.2000E+01

 Cartesian components of stress tensor (hartree/bohr^3)
  sigma(1 1)= -1.52868468E-03  sigma(3 2)=  0.00000000E+00
  sigma(2 2)= -2.24503657E-03  sigma(3 1)=  0.00000000E+00
  sigma(3 3)= -1.52868468E-03  sigma(2 1)=  0.00000000E+00

-Cartesian components of stress tensor (GPa)         [Pressure=  5.2001E+01 GPa]
- sigma(1 1)= -4.49754486E+01  sigma(3 2)=  0.00000000E+00
- sigma(2 2)= -6.60512452E+01  sigma(3 1)=  0.00000000E+00
- sigma(3 3)= -4.49754486E+01  sigma(2 1)=  0.00000000E+00

== END DATASET(S) ==============================================================
================================================================================
  
 -outvars: echo values of variables after computation  --------
            acell      8.6808000000E+00  5.5911000000E+00  8.6808000000E+00 Bohr
              amu      4.78800000E+01  1.59994000E+01
           diemac      1.20000000E+01
             ecut      6.00000000E+01 Hartree
           etotal     -7.5124205135E+01
            fcart      2.3129646346E-18  5.9611709256E-06 -1.1564823173E-18
                       2.3129646346E-18 -5.9611709256E-06 -1.1564823173E-18
                       3.2667204252E-02  1.1643508374E-06 -3.2667204252E-02
                      -3.2667204252E-02  1.1643508374E-06  3.2667204252E-02
                       3.2667204252E-02 -1.1643508374E-06  3.2667204252E-02
                      -3.2667204252E-02 -1.1643508374E-06 -3.2667204252E-02
-          fftalg         112
           getwfk          -1
              ixc          11
              kpt     -2.50000000E-01  5.00000000E-01  0.00000000E+00
                       5.00000000E-01 -2.50000000E-01  0.00000000E+00
                      -2.50000000E-01 -2.50000000E-01  2.50000000E-01
                      -2.50000000E-01  0.00000000E+00  0.00000000E+00
                       5.00000000E-01  5.00000000E-01  2.50000000E-01
                       0.00000000E+00 -2.50000000E-01  0.00000000E+00
                       5.00000000E-01 -2.50000000E-01  5.00000000E-01
                       5.00000000E-01  0.00000000E+00  2.50000000E-01
         kptrlatt        2   -2    2      0    4    0     -2   -2    2
          kptrlen      2.23644000E+01
P           mkmem           8
            natom           6
            nband          17
            ngfft          64      40      64
             nkpt           8
            nstep          50
             nsym           8
           ntypat           2
              occ      2.000000  2.000000  2.000000  2.000000  2.000000  2.000000
                       2.000000  2.000000  2.000000  2.000000  2.000000  2.000000
                       2.000000  2.000000  2.000000  2.000000  0.000000
           prtdos           2
           shiftk      5.00000000E-01  0.00000000E+00  5.00000000E-01
          spgroup         113
           strten     -1.5286846827E-03 -2.2450365697E-03 -1.5286846827E-03
                       0.0000000000E+00  0.0000000000E+00  0.0000000000E+00
           symrel      1  0  0   0  1  0   0  0  1       1  0  0   0 -1  0   0  0 -1
                      -1  0  0   0  1  0   0  0 -1      -1  0  0   0 -1  0   0  0  1
                       0  0  1   0  1  0   1  0  0       0  0  1   0 -1  0  -1  0  0
                       0  0 -1   0  1  0  -1  0  0       0  0 -1   0 -1  0   1  0  0
            tnons      0.0000000  0.0000000  0.0000000     0.5000000 -0.4999911  0.5000000
                       0.0000000  0.0000000  0.0000000     0.5000000 -0.4999911  0.5000000
                       0.0000000  0.0000000  0.0000000     0.5000000 -0.4999911  0.5000000
                       0.0000000  0.0000000  0.0000000     0.5000000 -0.4999911  0.5000000
           toldfe      1.00000000E-04 Hartree
            typat      1  1  2  2  2  2
              wtk        0.12500    0.12500    0.25000    0.12500    0.12500    0.06250
                         0.06250    0.12500
           xangst      0.0000000000E+00  0.0000000000E+00  0.0000000000E+00
                       2.2968407562E+00  1.4793678043E+00  2.2968407562E+00
                       3.1696656440E+00  0.0000000000E+00  1.4240158683E+00
                       1.4240158683E+00  0.0000000000E+00  3.1696656440E+00
                       8.7282488785E-01  1.4793678043E+00  8.7282488785E-01
                       3.7208566245E+00  1.4793678043E+00  3.7208566245E+00
            xcart      0.0000000000E+00  0.0000000000E+00  0.0000000000E+00
                       4.3404000000E+00  2.7956000000E+00  4.3404000000E+00
                       5.9898000000E+00  0.0000000000E+00  2.6910000000E+00
                       2.6910000000E+00  0.0000000000E+00  5.9898000000E+00
                       1.6494000000E+00  2.7956000000E+00  1.6494000000E+00
                       7.0314000000E+00  2.7956000000E+00  7.0314000000E+00
             xred      0.0000000000E+00  0.0000000000E+00  0.0000000000E+00
                       5.0000000000E-01  5.0000894278E-01  5.0000000000E-01
                       6.9000552944E-01  0.0000000000E+00  3.0999447056E-01
                       3.0999447056E-01  0.0000000000E+00  6.9000552944E-01
                       1.9000552944E-01  5.0000894278E-01  1.9000552944E-01
                       8.0999447056E-01  5.0000894278E-01  8.0999447056E-01
            znucl       22.00000    8.00000

================================================================================
  

================================================================================

 Suggested references for the acknowledgment of ABINIT usage.

 The users of ABINIT have little formal obligations with respect to the ABINIT group
 (those specified in the GNU General Public License, http://www.gnu.org/copyleft/gpl.txt).
 However, it is common practice in the scientific literature,
 to acknowledge the efforts of people that have made the research possible.
 In this spirit, please find below suggested citations of work written by ABINIT developers,
 corresponding to implementations inside of ABINIT that you have used in the present run.
 Note also that it will be of great value to readers of publications presenting these results,
 to read papers enabling them to understand the theoretical formalism and details
 of the ABINIT implementation.
 For information on why they are suggested, see also https://www.abinit.org/about/?text=acknowledgments.
-
- [1] Recent developments in the ABINIT software package.
- Computer Phys. Comm. 205, 106 (2016).
- X.Gonze, F.Jollet, F.Abreu Araujo, D.Adams, B.Amadon, T.Applencourt,
- C.Audouze, J.-M.Beuken, J.Bieder, A.Bokhanchuk, E.Bousquet, F.Bruneval
- D.Caliste, M.Cote, F.Dahm, F.Da Pieve, M.Delaveau, M.Di Gennaro,
- B.Dorado, C.Espejo, G.Geneste, L.Genovese, A.Gerossier, M.Giantomassi,
- Y.Gillet, D.R.Hamann, L.He, G.Jomard, J.Laflamme Janssen, S.Le Roux,
- A.Levitt, A.Lherbier, F.Liu, I.Lukacevic, A.Martin, C.Martins,
- M.J.T.Oliveira, S.Ponce, Y.Pouillon, T.Rangel, G.-M.Rignanese,
- A.H.Romero, B.Rousseau, O.Rubel, A.A.Shukri, M.Stankovski, M.Torrent,
- M.J.Van Setten, B.Van Troeye, M.J.Verstraete, D.Waroquier, J.Wiktor,
- B.Xue, A.Zhou, J.W.Zwanziger.
- Comment : the fourth generic paper describing the ABINIT project.
- Note that a version of this paper, that is not formatted for Computer Phys. Comm. 
- is available at https://www.abinit.org/about/ABINIT16.pdf .
- The licence allows the authors to put it on the Web.
-
- [2] ABINIT : First-principles approach of materials and nanosystem properties.
- Computer Phys. Comm. 180, 2582-2615 (2009).
- X. Gonze, B. Amadon, P.-M. Anglade, J.-M. Beuken, F. Bottin, P. Boulanger, F. Bruneval,
- D. Caliste, R. Caracas, M. Cote, T. Deutsch, L. Genovese, Ph. Ghosez, M. Giantomassi
- S. Goedecker, D.R. Hamann, P. Hermet, F. Jollet, G. Jomard, S. Leroux, M. Mancini, S. Mazevet,
- M.J.T. Oliveira, G. Onida, Y. Pouillon, T. Rangel, G.-M. Rignanese, D. Sangalli, R. Shaltaf,
- M. Torrent, M.J. Verstraete, G. Zerah, J.W. Zwanziger
- Comment : the third generic paper describing the ABINIT project.
- Note that a version of this paper, that is not formatted for Computer Phys. Comm. 
- is available at https://www.abinit.org/about/ABINIT_CPC_v10.pdf .
- The licence allows the authors to put it on the Web.
-
- [3] A brief introduction to the ABINIT software package.
- Z. Kristallogr. 220, 558-562 (2005).
- X. Gonze, G.-M. Rignanese, M. Verstraete, J.-M. Beuken, Y. Pouillon, R. Caracas, F. Jollet,
- M. Torrent, G. Zerah, M. Mikami, Ph. Ghosez, M. Veithen, J.-Y. Raty, V. Olevano, F. Bruneval,
- L. Reining, R. Godby, G. Onida, D.R. Hamann, and D.C. Allan.
- Comment : the second generic paper describing the ABINIT project. Note that this paper
- should be cited especially if you are using the GW part of ABINIT, as several authors
- of this part are not in the list of authors of the first or third paper.
- The .pdf of the latter paper is available at https://www.abinit.org/about/zfk_0505-06_558-562.pdf.
- Note that it should not redistributed (Copyright by Oldenburg Wissenshaftverlag,
- the licence allows the authors to put it on the Web).
-
- And optionally:
-
- [4] First-principles computation of material properties : the ABINIT software project. 
- X. Gonze, J.-M. Beuken, R. Caracas, F. Detraux, M. Fuchs, G.-M. Rignanese, L. Sindic,
- M. Verstraete, G. Zerah, F. Jollet, M. Torrent, A. Roy, M. Mikami, Ph. Ghosez, J.-Y. Raty, D.C. Allan.
- Computational Materials Science 25, 478-492 (2002). http://dx.doi.org/10.1016/S0927-0256(02)00325-7
- Comment : the original paper describing the ABINIT project.

 Calculation completed.
.Delivered   6 WARNINGs and   0 COMMENTs to log file.

--- !FinalSummary
program: abinit
version: 8.6.3
start_datetime: Fri Apr 27 21:50:24 2018
end_datetime: Fri Apr 27 21:51:14 2018
overall_cpu_time:          48.9
overall_wall_time:          50.1
exit_requested_by_user: no 
timelimit: 0
pseudos: 
    Ti  : 9d5151159dba5b2d9be995f71cdbe165
    O   : f9a33d255b992d3a483d25bc79688495
usepaw: 0
mpi_procs: 1
omp_threads: 1
num_warnings: 6
num_comments: 0
...
