  ABINIT 8.6.3
  
  Give name for formatted input file: 
RutileDOS.in
  Give name for formatted output file:
RutileDOS.out
  Give root name for generic input files:
RutileDOS_i
  Give root name for generic output files:
RutileDOS_o
  Give root name for generic temporary files:
RutileDOS

.Version 8.6.3 of ABINIT 
.(sequential version, prepared for a x86_64_linux_gnu5.4 computer) 

.Copyright (C) 1998-2017 ABINIT group . 
 ABINIT comes with ABSOLUTELY NO WARRANTY.
 It is free software, and you are welcome to redistribute it
 under certain conditions (GNU General Public License,
 see ~abinit/COPYING or http://www.gnu.org/copyleft/gpl.txt).

 ABINIT is a project of the Universite Catholique de Louvain,
 Corning Inc. and other collaborators, see ~abinit/doc/developers/contributors.txt .
 Please read ~abinit/doc/users/acknowledgments.html for suggested
 acknowledgments of the ABINIT effort.
 For more information, see https://www.abinit.org .

.Starting date : Sat 21 Apr 2018.
- ( at 12h36 )
  

 ++++++++++++++++++++++++++++++++++++++++++++++++++++++++++++++++++++++++++++++

 === Build Information === 
  Version       : 8.6.3
  Build target  : x86_64_linux_gnu5.4
  Build date    : 20180412

 === Compiler Suite === 
  C compiler       : gnu5.4
  C++ compiler     : gnu5.4
  Fortran compiler : gnu5.4
  CFLAGS           :  -g -O2 -mtune=native -march=native
  CXXFLAGS         :  -g -O2 -mtune=native -march=native
  FCFLAGS          :  -g -ffree-line-length-none
  FC_LDFLAGS       : 

 === Optimizations === 
  Debug level        : basic
  Optimization level : standard
  Architecture       : unknown_unknown

 === Multicore === 
  Parallel build : no
  Parallel I/O   : no
  openMP support : no
  GPU support    : no

 === Connectors / Fallbacks === 
  Connectors on : yes
  Fallbacks on  : yes
  DFT flavor    : none
  FFT flavor    : none
  LINALG flavor : netlib-fallback
  MATH flavor   : none
  TIMER flavor  : abinit
  TRIO flavor   : none

 === Experimental features === 
  Bindings            : @enable_bindings@
  Exports             : no
  GW double-precision : no

 ++++++++++++++++++++++++++++++++++++++++++++++++++++++++++++++++++++++++++++++


 ++++++++++++++++++++++++++++++++++++++++++++++++++++++++++++++++++++++++++++++
 Default optimizations:
   -O2 -mtune=native -march=native


 Optimizations for 20_datashare:
   -O0


 ++++++++++++++++++++++++++++++++++++++++++++++++++++++++++++++++++++++++++++++


 ++++++++++++++++++++++++++++++++++++++++++++++++++++++++++++++++++++++++++++++
 CPP options activated during the build:

                    CC_GNU                   CXX_GNU                    FC_GNU
 
 HAVE_FC_ALLOCATABLE_DT...             HAVE_FC_ASYNC         HAVE_FC_BACKTRACE
 
  HAVE_FC_COMMAND_ARGUMENT      HAVE_FC_COMMAND_LINE        HAVE_FC_CONTIGUOUS
 
           HAVE_FC_CPUTIME              HAVE_FC_EXIT             HAVE_FC_FLUSH
 
             HAVE_FC_GAMMA            HAVE_FC_GETENV   HAVE_FC_IEEE_EXCEPTIONS
 
          HAVE_FC_INT_QUAD             HAVE_FC_IOMSG     HAVE_FC_ISO_C_BINDING
 
  HAVE_FC_ISO_FORTRAN_2008        HAVE_FC_LONG_LINES        HAVE_FC_MOVE_ALLOC
 
           HAVE_FC_PRIVATE         HAVE_FC_PROTECTED         HAVE_FC_STREAM_IO
 
            HAVE_FC_SYSTEM          HAVE_FORTRAN2003        HAVE_LIBPAW_ABINIT
 
      HAVE_LIBTETRA_ABINIT             HAVE_OS_LINUX         HAVE_TIMER_ABINIT
 
              USE_MACROAVE                                                      
 ++++++++++++++++++++++++++++++++++++++++++++++++++++++++++++++++++++++++++++++

- input  file    -> RutileDOS.in
- output file    -> RutileDOS.out
- root for input  files -> RutileDOS_i
- root for output files -> RutileDOS_o

-instrng: 92 lines of input have been read from file RutileDOS.in


 Please give name of formatted atomic psp file
 iofn2 : for atom type 1, psp file is ../../../Psps_for_tests/22ti.pspnc

 Please give name of formatted atomic psp file
 iofn2 : for atom type 2, psp file is ../../../Psps_for_tests/8o.pspnc
  read the values zionpsp=  4.0 , pspcod=   1 , lmax=   2
  read the values zionpsp=  6.0 , pspcod=   1 , lmax=   1

 inpspheads: deduce mpsang = 3, n1xccc = 2501.
 invars1 : treat image number: 1

 symlatt : the Bravais lattice is tP (primitive tetragonal)
  xcart  is defined in input file
 ingeo : takes atomic coordinates from input array xcart
 symfind : exit, nsym=8
   symrel matrices, symafm and tnons are :
   1       1   0   0     0   1   0     0   0   1       1      0.0000  0.0000  0.0000
   2      -1   0   0     0   1   0     0   0  -1       1      0.5000  0.5000 -0.5000
   3      -1   0   0     0  -1   0     0   0   1       1      0.0000  0.0000  0.0000
   4       1   0   0     0  -1   0     0   0  -1       1      0.5000  0.5000 -0.5000
   5       0   1   0     1   0   0     0   0   1       1      0.0000  0.0000  0.0000
   6       0  -1   0     1   0   0     0   0  -1       1      0.5000  0.5000 -0.5000
   7       0  -1   0    -1   0   0     0   0   1       1      0.0000  0.0000  0.0000
   8       0   1   0    -1   0   0     0   0  -1       1      0.5000  0.5000 -0.5000

 symlatt : the Bravais lattice is tP (primitive tetragonal)

 symlatt : the Bravais lattice is tP (primitive tetragonal)
 symspgr : spgroup= 113  P-4 2_1 m   (=D2d^3)
 symspgr : optical characteristics = uniaxial
 Optical axis (in reduced coordinates, real space ) :   0   0   1
 ingeo : angdeg(1:3)=   90.00000000   90.00000000   90.00000000
 invars2: take the default value of fband=  1.25000000E-01
 chkneu : initialized the occupation numbers for occopt=    1, spin-unpolarized or antiferromagnetic case :
  2.00  2.00  2.00  2.00  2.00  2.00  2.00  2.00  2.00  2.00  2.00  2.00
  2.00  2.00  2.00  2.00  0.00
mpi_setup: mkmem  undefined in the input file.Use default mkmem  = nkpt
 mpi_setup: With nkpt_me=8 and mkmem  = 8, ground state wf handled in core.
mpi_setup: mkqmem undefined in the input file.Use default mkqmem = nkpt
 mpi_setup: With nkpt_me=8 and mkqmem = 8, ground state wf handled in core.
mpi_setup: mk1mem undefined in the input file.Use default mk1mem = nkpt
 mpi_setup: With nkpt_me=8 and mk1mem = 8, ground state wf handled in core.
 For input ecut=  1.152000E+01 best grid ngfft=      30      30      18
       max ecut=  1.278675E+01

 ==== FFT mesh ====
  FFT mesh divisions ........................    30   30   18
  Augmented FFT divisions ...................    31   31   18
  FFT algorithm .............................   112
  FFT cache size ............................    16
 getmpw: optimal value of mpw= 794

 Symmetries : space group P-4 2_1 m (#113); Bravais tP (primitive tetrag.)

 getdim_nloc : deduce lmnmax  =   8, lnmax  =   2,
                      lmnmaxso=   8, lnmaxso=   2.
memory : analysis of memory needs
================================================================================
 Values of the parameters that define the memory need of the present run
     intxc =       0    ionmov =       2      iscf =       7    lmnmax =       2
     lnmax =       2     mgfft =      30  mpssoang =       3    mqgrid =    3001
     natom =       6  nloc_mem =       1    nspden =       1   nspinor =       1
    nsppol =       1      nsym =       8    n1xccc =    2501    ntypat =       2
    occopt =       1   xclevel =       1
-    mband =          17        mffmem =           1         mkmem =           8
       mpw =         794          nfft =       16200          nkpt =           8
================================================================================
P This job should need less than                       7.275 Mbytes of memory.
  Rough estimation (10% accuracy) of disk space for files :
_ WF disk file :      1.650 Mbytes ; DEN or POT disk file :      0.126 Mbytes.
================================================================================

 Biggest array : f_fftgr(disk), with      1.9795 MBytes.
 memana : allocated an array of      1.980 Mbytes, for testing purposes.
 memana: allocated       7.275Mbytes, for testing purposes. 
 The job will continue.
--------------------------------------------------------------------------------
------------- Echo of variables that govern the present computation ------------
--------------------------------------------------------------------------------
-
- outvars: echo of selected default values                                      
-   iomode0 =  0 , fftalg0 =112 , wfoptalg0 =  0
-
- outvars: echo of global parameters not present in the input file              
-  max_nthreads =    0
-
 -outvars: echo values of preprocessed input variables --------
            acell      8.6808000000E+00  8.6808000000E+00  5.5911000000E+00 Bohr
              amu      4.78800000E+01  1.59994000E+01
           diemac      1.20000000E+01
          dilatmx      1.20000000E+00
             ecut      8.00000000E+00 Hartree
           ecutsm      5.00000000E-01 Hartree
-          fftalg         112
           getwfk          -1
           ionmov           2
              kpt      0.00000000E+00  2.50000000E-01  0.00000000E+00
                       2.50000000E-01  5.00000000E-01  0.00000000E+00
                       0.00000000E+00  0.00000000E+00  2.50000000E-01
                       0.00000000E+00  5.00000000E-01  2.50000000E-01
                       2.50000000E-01  2.50000000E-01  2.50000000E-01
                       5.00000000E-01  5.00000000E-01  2.50000000E-01
                       0.00000000E+00  2.50000000E-01  5.00000000E-01
                       2.50000000E-01  5.00000000E-01  5.00000000E-01
         kptrlatt        2   -2   -2      2    2   -2      0    0    4
          kptrlen      2.23644000E+01
P           mkmem           8
            natom           6
            nband          17
            ngfft          30      30      18
             nkpt           8
            nstep          10
             nsym           8
            ntime          10
           ntypat           2
              occ      2.000000  2.000000  2.000000  2.000000  2.000000  2.000000
                       2.000000  2.000000  2.000000  2.000000  2.000000  2.000000
                       2.000000  2.000000  2.000000  2.000000  0.000000
          optcell           1
           prtdos           2
           shiftk     -5.00000000E-01 -5.00000000E-01  1.00000000E+00
          spgroup         113
           symrel      1  0  0   0  1  0   0  0  1      -1  0  0   0  1  0   0  0 -1
                      -1  0  0   0 -1  0   0  0  1       1  0  0   0 -1  0   0  0 -1
                       0  1  0   1  0  0   0  0  1       0 -1  0   1  0  0   0  0 -1
                       0 -1  0  -1  0  0   0  0  1       0  1  0  -1  0  0   0  0 -1
            tnons      0.0000000  0.0000000  0.0000000     0.5000000  0.5000000 -0.4999911
                       0.0000000  0.0000000  0.0000000     0.5000000  0.5000000 -0.4999911
                       0.0000000  0.0000000  0.0000000     0.5000000  0.5000000 -0.4999911
                       0.0000000  0.0000000  0.0000000     0.5000000  0.5000000 -0.4999911
           toldfe      1.00000000E-04 Hartree
            typat      1  1  2  2  2  2
              wtk        0.12500    0.12500    0.06250    0.12500    0.25000    0.06250
                         0.12500    0.12500
           xangst      0.0000000000E+00  0.0000000000E+00  0.0000000000E+00
                       2.2968407562E+00  2.2968407562E+00  1.4793678043E+00
                       1.4240158683E+00  1.4240158683E+00  0.0000000000E+00
                       3.1696656440E+00  3.1696656440E+00  0.0000000000E+00
                       8.7282488785E-01  3.7208566245E+00  1.4793678043E+00
                       3.7208566245E+00  8.7282488785E-01  1.4793678043E+00
            xcart      0.0000000000E+00  0.0000000000E+00  0.0000000000E+00
                       4.3404000000E+00  4.3404000000E+00  2.7956000000E+00
                       2.6910000000E+00  2.6910000000E+00  0.0000000000E+00
                       5.9898000000E+00  5.9898000000E+00  0.0000000000E+00
                       1.6494000000E+00  7.0314000000E+00  2.7956000000E+00
                       7.0314000000E+00  1.6494000000E+00  2.7956000000E+00
             xred      0.0000000000E+00  0.0000000000E+00  0.0000000000E+00
                       5.0000000000E-01  5.0000000000E-01  5.0000894278E-01
                       3.0999447056E-01  3.0999447056E-01  0.0000000000E+00
                       6.9000552944E-01  6.9000552944E-01  0.0000000000E+00
                       1.9000552944E-01  8.0999447056E-01  5.0000894278E-01
                       8.0999447056E-01  1.9000552944E-01  5.0000894278E-01
            znucl       22.00000    8.00000

================================================================================

 chkinp: Checking input parameters for consistency.

 chkinp: WARNING -
   Chksymbreak=1 . Found potentially symmetry-breaking value of tnons, 
   which is neither a rational fraction in 1/8th nor in 1/12th :
   for the symmetry number    2
   symrel is  -1  0  0  0  1  0  0  0 -1
   tnons is     5.000000E-01    5.000000E-01   -4.999911E-01
   Please, read the description of the input variable chksymbreak,
   then, if you feel confident, you might switch it to zero, or consult with the forum.

 chkinp: WARNING -
   Chksymbreak=1 . Found potentially symmetry-breaking value of tnons, 
   which is neither a rational fraction in 1/8th nor in 1/12th :
   for the symmetry number    4
   symrel is   1  0  0  0 -1  0  0  0 -1
   tnons is     5.000000E-01    5.000000E-01   -4.999911E-01
   Please, read the description of the input variable chksymbreak,
   then, if you feel confident, you might switch it to zero, or consult with the forum.

 chkinp: WARNING -
   Chksymbreak=1 . Found potentially symmetry-breaking value of tnons, 
   which is neither a rational fraction in 1/8th nor in 1/12th :
   for the symmetry number    6
   symrel is   0 -1  0  1  0  0  0  0 -1
   tnons is     5.000000E-01    5.000000E-01   -4.999911E-01
   Please, read the description of the input variable chksymbreak,
   then, if you feel confident, you might switch it to zero, or consult with the forum.

 chkinp: WARNING -
   Chksymbreak=1 . Found potentially symmetry-breaking value of tnons, 
   which is neither a rational fraction in 1/8th nor in 1/12th :
   for the symmetry number    8
   symrel is   0  1  0 -1  0  0  0  0 -1
   tnons is     5.000000E-01    5.000000E-01   -4.999911E-01
   Please, read the description of the input variable chksymbreak,
   then, if you feel confident, you might switch it to zero, or consult with the forum.
 DATA TYPE INFORMATION: 
 REAL:      Data type name: REAL(DP) 
            Kind value:      8
            Precision:      15
            Smallest nonnegligible quantity relative to 1:  0.22204460E-15
            Smallest positive number:                       0.22250739-307
            Largest representable number:                   0.17976931+309
 INTEGER:   Data type name: INTEGER(default) 
            Kind value: 4
            Bit size:   32
            Largest representable number: 2147483647
 LOGICAL:   Data type name: LOGICAL 
            Kind value: 4
 CHARACTER: Data type name: CHARACTER             Kind value: 1

  ==== OpenMP parallelism is OFF ====
 
  MPI-IO support is OFF

================================================================================
== DATASET  1 ==================================================================
-   nproc =    1


 getdim_nloc : deduce lmnmax  =   8, lnmax  =   2,
                      lmnmaxso=   8, lnmaxso=   2.
 Exchange-correlation functional for the present dataset will be:
  LDA: new Teter (4/93) with spin-polarized option - ixc=1
 Citation for XC functional:
  S. Goedecker, M. Teter, J. Huetter, PRB 54, 1703 (1996)

 Unit cell volume ucvol=  4.2132455E+02 bohr^3
 Angles (23,13,12)=  9.00000000E+01  9.00000000E+01  9.00000000E+01 degrees

 getcut: wavevector=  0.0000  0.0000  0.0000  ngfft=  30  30  18
         ecut(hartree)=     11.520   => boxcut(ratio)=   2.10709
- pspini: atom type   1  psp file is ../../../Psps_for_tests/22ti.pspnc
- pspatm: opening atomic psp file    ../../../Psps_for_tests/22ti.pspnc
-  Troullier-Martins psp for element  Ti        Thu Oct 27 17:33:40 EDT 1994
- 22.00000   4.00000    940714                znucl, zion, pspdat
    1    1    2    0      2001   0.00000      pspcod,pspxc,lmax,lloc,mmax,r2well
    0   5.166   8.509    0   2.4203472        l,e99.0,e99.9,nproj,rcpsp
   0.00000000   0.00000000   0.00000000   0.00000000     rms, ekb1, ekb2, epsatm
    1   2.285   3.944    1   2.9934301        l,e99.0,e99.9,nproj,rcpsp
   0.00000000   0.00000000   0.00000000   0.00000000     rms, ekb1, ekb2, epsatm
    2  20.947  27.069    1   1.9326638        l,e99.0,e99.9,nproj,rcpsp
   0.00000000   0.00000000   0.00000000   0.00000000     rms, ekb1, ekb2, epsatm
    2.82741504495369    0.09256629068341    1.82586447305099   rchrg,fchrg,qchrg
  pspatm : epsatm=   66.67453488
         --- l  ekb(1:nproj) -->
             1    0.915537
             2   -8.015692
 pspatm: atomic psp has been read  and splines computed

- pspini: atom type   2  psp file is ../../../Psps_for_tests/8o.pspnc
- pspatm: opening atomic psp file    ../../../Psps_for_tests/8o.pspnc
-  Troullier-Martins psp for element  O         Thu Oct 27 17:29:57 EDT 1994
-  8.00000   6.00000    940714                znucl, zion, pspdat
    1    1    1    1      2001   0.00000      pspcod,pspxc,lmax,lloc,mmax,r2well
    0   5.480  16.893    1   1.4482335        l,e99.0,e99.9,nproj,rcpsp
   0.00000000   0.00000000   0.00000000   0.00000000     rms, ekb1, ekb2, epsatm
    1  20.911  28.075    0   1.4482335        l,e99.0,e99.9,nproj,rcpsp
   0.00000000   0.00000000   0.00000000   0.00000000     rms, ekb1, ekb2, epsatm
    0.56990156784787    3.95561236318184    0.63894027514378   rchrg,fchrg,qchrg
  pspatm : epsatm=    1.57752239
         --- l  ekb(1:nproj) -->
             0    5.670783
 pspatm: atomic psp has been read  and splines computed

   4.46909310E+03                                ecore*ucvol(ha*bohr**3)
 ==== Info on pseudopotentials ====
  Norm-conserving pseudopotentials
  Number of pseudopotentials ..    2
  Number of types of atoms   ..    2
  Scalar calculation (no spin-orbit term)
  Nonlocal part applied using Legendre polynomials
  Max number of non-local projectors over l and type   1
  Highest angular momentum +1 .......   3
  Max number of (l,n)   components ..   2
  Max number of (l,m,n) components ..   2

 Pseudo-Core Charge Info: 
   Number of radial points for pseudo-core charge .. 2501
   XC core-correction treatment (optnlxccc) ........    1
   Radius for pseudo-core charge for each type ..... 

  - Atom type    1 has pseudo-core radius ..  8.4822
  - Atom type    2 has pseudo-core radius ..  1.7097

 Info on the Q-grid used for form factors in spline form: 
   Number of q-points for radial functions ffspl ..   3001
   Number of q-points for vlspl ...................   3001
   vloc is computed in Reciprocal Space
   model core charge treated in real-space

  XC functional for type 1 is 1
  Pseudo valence available: no
  XC functional for type 2 is 1
  Pseudo valence available: no

 wfconv:    17 bands initialized randomly with npw=   791, for ikpt=     1
 wfconv:    17 bands initialized randomly with npw=   794, for ikpt=     2
 wfconv:    17 bands initialized randomly with npw=   793, for ikpt=     3
 wfconv:    17 bands initialized randomly with npw=   794, for ikpt=     4
 wfconv:    17 bands initialized randomly with npw=   782, for ikpt=     5
 wfconv:    17 bands initialized randomly with npw=   788, for ikpt=     6
 wfconv:    17 bands initialized randomly with npw=   788, for ikpt=     7
 wfconv:    17 bands initialized randomly with npw=   788, for ikpt=     8
_setup2: Arith. and geom. avg. npw (full set) are     788.688     788.675
 initro: for itypat=  1, take decay length=      1.2000,
 initro: indeed, coreel=     18.0000, nval=  4 and densty=  0.0000E+00.
 initro: for itypat=  2, take decay length=      0.5000,
 initro: indeed, coreel=      2.0000, nval=  6 and densty=  0.0000E+00.

================================================================================

=== [ionmov= 2] Broyden-Fletcher-Goldfard-Shanno method (forces)            
================================================================================

--- Iteration: ( 1/10) Internal Cycle: (1/1)
--------------------------------------------------------------------------------

 Cartesian coordinates (xcart) [bohr]
  0.00000000000000E+00  0.00000000000000E+00  0.00000000000000E+00
  4.34040000000000E+00  4.34040000000000E+00  2.79560000000000E+00
  2.69100000000000E+00  2.69100000000000E+00  0.00000000000000E+00
  5.98980000000000E+00  5.98980000000000E+00  0.00000000000000E+00
  1.64940000000000E+00  7.03140000000000E+00  2.79560000000000E+00
  7.03140000000000E+00  1.64940000000000E+00  2.79560000000000E+00
 Reduced coordinates (xred)
  0.00000000000000E+00  0.00000000000000E+00  0.00000000000000E+00
  5.00000000000000E-01  5.00000000000000E-01  5.00008942784067E-01
  3.09994470555709E-01  3.09994470555709E-01  0.00000000000000E+00
  6.90005529444291E-01  6.90005529444291E-01  0.00000000000000E+00
  1.90005529444291E-01  8.09994470555709E-01  5.00008942784067E-01
  8.09994470555709E-01  1.90005529444291E-01  5.00008942784067E-01
 Scale of Primitive Cell (acell) [bohr]
  8.68080000000000E+00  8.68080000000000E+00  5.59110000000000E+00
 Real space primitive translations (rprimd) [bohr]
  8.68080000000000E+00  0.00000000000000E+00  0.00000000000000E+00
  0.00000000000000E+00  8.68080000000000E+00  0.00000000000000E+00
  0.00000000000000E+00  0.00000000000000E+00  5.59110000000000E+00
 Unitary Cell Volume (ucvol) [Bohr^3]=  4.21324545415104E+02
 Angles (23,13,12)= [degrees]
  9.00000000000000E+01  9.00000000000000E+01  9.00000000000000E+01
 Lengths [Bohr]
  8.68080000000000E+00  8.68080000000000E+00  5.59110000000000E+00

---SELF-CONSISTENT-FIELD CONVERGENCE--------------------------------------------

 getcut: wavevector=  0.0000  0.0000  0.0000  ngfft=  30  30  18
         ecut(hartree)=      8.000   => boxcut(ratio)=   2.52851

 getcut : COMMENT -
  Note that boxcut > 2.2 ; recall that boxcut=Gcut(box)/Gcut(sphere) = 2
  is sufficient for exact treatment of convolution.
  Such a large boxcut is a waste : you could raise ecut
  e.g. ecut=   12.786752 Hartrees makes boxcut=2


 ITER STEP NUMBER     1
 vtorho : nnsclo_now=2, note that nnsclo,dbl_nnsclo,istep=0 0 1
 non-scf iterations; kpt #     1  , k= (  0.00000  0.25000  0.00000  ), band residuals:
 res:  4.26E-01  2.68E-01  2.98E-01  2.16E-01  2.77E-01  2.89E-01  1.97E-01  8.59E-02
 res:  1.44E-01  1.46E-01  1.37E-01  1.44E-01  1.19E-01  9.36E-02  1.54E-01  1.30E-01
 res:  2.04E-01
 ene: -6.91E-01 -6.47E-01 -6.25E-01 -5.99E-01 -1.30E-01 -7.42E-02 -5.10E-02  2.00E-02
 ene:  5.08E-02  7.47E-02  8.60E-02  1.09E-01  1.46E-01  2.02E-01  3.39E-01  3.96E-01
 ene:  4.13E-01
 res:  2.48E-03  3.08E-03  3.16E-03  2.72E-03  1.23E-03  1.53E-03  2.49E-03  1.03E-03
 res:  1.40E-03  3.23E-03  3.61E-03  3.99E-03  6.38E-03  3.81E-03  3.88E-02  1.66E-02
 res:  2.76E-02
 ene: -7.55E-01 -7.10E-01 -6.89E-01 -6.86E-01 -1.46E-01 -9.74E-02 -7.90E-02  1.13E-03
 ene:  2.95E-02  3.56E-02  5.28E-02  7.15E-02  7.67E-02  1.53E-01  1.62E-01  2.81E-01
 ene:  3.00E-01
 vtowfk : number of one-way 3D ffts skipped in vtowfk until now =1
     eigenvalues (hartree) for   17  bands
              after    3 non-SCF iterations with    4 CG line minimizations
 -7.5457E-01 -7.1001E-01 -6.8853E-01 -6.8552E-01 -1.4614E-01 -9.7416E-02
 -7.8984E-02  1.1273E-03  2.9500E-02  3.5630E-02  5.2813E-02  7.1503E-02
  7.6744E-02  1.5253E-01  1.6185E-01  2.8060E-01  2.9954E-01
 non-scf iterations; kpt #     2  , k= (  0.25000  0.50000  0.00000  ), band residuals:
 res:  4.02E-01  2.88E-01  2.83E-01  2.91E-01  2.20E-01  1.64E-01  2.08E-01  1.36E-01
 res:  1.39E-01  1.98E-01  1.57E-01  1.02E-01  1.53E-01  1.03E-01  1.26E-01  1.43E-01
 res:  9.75E-02
 ene: -6.85E-01 -6.41E-01 -6.11E-01 -5.92E-01 -9.53E-02 -8.67E-02 -2.50E-02 -1.10E-02
 ene:  5.93E-02  7.85E-02  8.88E-02  9.88E-02  1.50E-01  1.77E-01  2.59E-01  2.91E-01
 ene:  4.16E-01
 res:  1.64E-03  3.25E-03  3.28E-03  4.52E-03  6.62E-04  1.66E-03  1.01E-03  1.61E-03
 res:  5.58E-04  1.25E-03  2.15E-03  2.80E-03  2.90E-03  5.18E-03  1.31E-02  1.59E-02
 res:  7.78E-03
 ene: -7.31E-01 -7.31E-01 -6.91E-01 -6.90E-01 -1.10E-01 -1.10E-01 -4.05E-02 -4.03E-02
 ene:  4.53E-02  4.65E-02  6.26E-02  6.37E-02  9.50E-02  9.62E-02  1.36E-01  1.37E-01
 ene:  3.52E-01
 vtowfk : number of one-way 3D ffts skipped in vtowfk until now =2
     eigenvalues (hartree) for   17  bands
              after    3 non-SCF iterations with    4 CG line minimizations
 -7.3142E-01 -7.3085E-01 -6.9063E-01 -6.9036E-01 -1.1020E-01 -1.0963E-01
 -4.0485E-02 -4.0257E-02  4.5292E-02  4.6524E-02  6.2611E-02  6.3743E-02
  9.5000E-02  9.6239E-02  1.3584E-01  1.3664E-01  3.5172E-01
 non-scf iterations; kpt #     3  , k= (  0.00000  0.00000  0.25000  ), band residuals:
 res:  2.20E-01  3.28E-01  2.24E-01  1.70E-01  2.75E-01  2.03E-01  2.39E-01  1.52E-01
 res:  1.54E-01  1.31E-01  1.53E-01  1.12E-01  1.67E-01  8.03E-02  1.39E-01  1.63E-01
 res:  6.66E-02
 ene: -6.90E-01 -6.33E-01 -6.14E-01 -5.94E-01 -9.88E-02 -6.68E-02 -2.85E-02 -2.28E-02
 ene: -1.33E-02 -1.54E-03  3.73E-02  6.91E-02  1.08E-01  1.89E-01  2.22E-01  2.64E-01
 ene:  4.58E-01
 res:  2.22E-03  1.44E-03  3.24E-03  4.42E-03  1.65E-03  7.20E-04  7.52E-04  6.35E-04
 res:  1.75E-03  2.80E-03  2.40E-03  2.87E-03  5.90E-03  3.20E-03  7.98E-03  8.47E-03
 res:  1.60E-02
 ene: -7.43E-01 -6.93E-01 -6.89E-01 -6.88E-01 -1.24E-01 -7.98E-02 -4.49E-02 -3.75E-02
 ene: -3.69E-02 -3.42E-02  8.72E-03  4.34E-02  4.49E-02  1.27E-01  1.42E-01  1.43E-01
 ene:  3.24E-01
 vtowfk : number of one-way 3D ffts skipped in vtowfk until now =3
     eigenvalues (hartree) for   17  bands
              after    3 non-SCF iterations with    4 CG line minimizations
 -7.4334E-01 -6.9343E-01 -6.8887E-01 -6.8849E-01 -1.2440E-01 -7.9795E-02
 -4.4918E-02 -3.7490E-02 -3.6934E-02 -3.4191E-02  8.7205E-03  4.3381E-02
  4.4909E-02  1.2669E-01  1.4188E-01  1.4251E-01  3.2397E-01
 non-scf iterations; kpt #     4  , k= (  0.00000  0.50000  0.25000  ), band residuals:
 res:  4.02E-01  2.54E-01  2.02E-01  2.33E-01  2.15E-01  1.41E-01  1.91E-01  1.66E-01
 res:  1.17E-01  1.75E-01  2.63E-01  1.50E-01  1.60E-01  9.55E-02  1.80E-01  1.53E-01
 res:  1.26E-01
 ene: -6.74E-01 -6.53E-01 -6.41E-01 -5.97E-01 -8.47E-02 -6.93E-02 -4.85E-02 -2.44E-02
 ene: -5.74E-03  1.61E-02  7.91E-02  1.10E-01  1.39E-01  1.59E-01  1.78E-01  3.69E-01
 ene:  4.88E-01
 res:  1.63E-03  2.51E-03  1.64E-03  3.77E-03  8.75E-04  1.72E-03  1.52E-03  2.72E-03
 res:  1.01E-03  2.90E-03  1.48E-03  3.95E-03  2.88E-03  2.39E-03  4.30E-03  2.62E-02
 res:  8.08E-03
 ene: -7.21E-01 -7.21E-01 -6.88E-01 -6.87E-01 -1.01E-01 -1.00E-01 -6.78E-02 -6.67E-02
 ene: -2.28E-02 -2.19E-02  5.38E-02  5.56E-02  9.58E-02  9.71E-02  1.25E-01  1.26E-01
 ene:  4.11E-01
 vtowfk : number of one-way 3D ffts skipped in vtowfk until now =4
     eigenvalues (hartree) for   17  bands
              after    3 non-SCF iterations with    4 CG line minimizations
 -7.2120E-01 -7.2089E-01 -6.8778E-01 -6.8730E-01 -1.0087E-01 -1.0040E-01
 -6.7790E-02 -6.6673E-02 -2.2832E-02 -2.1912E-02  5.3761E-02  5.5611E-02
  9.5807E-02  9.7113E-02  1.2492E-01  1.2647E-01  4.1057E-01
 non-scf iterations; kpt #     5  , k= (  0.25000  0.25000  0.25000  ), band residuals:
 res:  3.22E-01  2.62E-01  2.49E-01  2.53E-01  1.57E-01  1.84E-01  2.51E-01  1.59E-01
 res:  1.27E-01  1.88E-01  1.79E-01  1.08E-01  1.35E-01  1.47E-01  1.36E-01  1.53E-01
 res:  1.69E-01
 ene: -6.83E-01 -6.37E-01 -6.00E-01 -5.84E-01 -9.87E-02 -8.10E-02 -6.28E-02 -1.84E-02
 ene:  1.32E-02  3.74E-02  9.00E-02  9.20E-02  1.22E-01  1.76E-01  2.05E-01  3.18E-01
 ene:  4.81E-01
 res:  1.48E-03  3.48E-03  3.53E-03  3.75E-03  6.63E-04  1.10E-03  2.05E-03  1.54E-03
 res:  1.56E-03  1.91E-03  2.90E-03  5.14E-03  4.10E-03  4.01E-03  6.41E-03  2.49E-02
 res:  1.02E-02
 ene: -7.32E-01 -7.05E-01 -6.91E-01 -6.87E-01 -1.13E-01 -9.92E-02 -9.07E-02 -4.36E-02
 ene: -1.48E-02  1.01E-02  3.38E-02  5.12E-02  7.16E-02  1.23E-01  1.34E-01  1.49E-01
 ene:  4.09E-01
 vtowfk : number of one-way 3D ffts skipped in vtowfk until now =5
     eigenvalues (hartree) for   17  bands
              after    3 non-SCF iterations with    4 CG line minimizations
 -7.3163E-01 -7.0542E-01 -6.9119E-01 -6.8749E-01 -1.1250E-01 -9.9223E-02
 -9.0711E-02 -4.3633E-02 -1.4803E-02  1.0065E-02  3.3828E-02  5.1156E-02
  7.1626E-02  1.2322E-01  1.3386E-01  1.4897E-01  4.0931E-01
 non-scf iterations; kpt #     6  , k= (  0.50000  0.50000  0.25000  ), band residuals:
 res:  3.66E-01  2.33E-01  2.07E-01  2.60E-01  1.96E-01  2.01E-01  1.91E-01  1.92E-01
 res:  1.95E-01  1.51E-01  1.20E-01  1.53E-01  1.16E-01  9.85E-02  1.45E-01  1.39E-01
 res:  2.17E-01
 ene: -6.80E-01 -6.51E-01 -6.30E-01 -6.09E-01 -8.69E-02 -8.53E-02 -7.86E-02 -5.92E-02
 ene:  7.33E-02  8.26E-02  9.06E-02  1.08E-01  1.27E-01  1.65E-01  2.74E-01  3.59E-01
 ene:  4.58E-01
 res:  1.31E-03  1.55E-03  3.59E-03  4.01E-03  1.53E-03  1.46E-03  1.35E-03  3.26E-03
 res:  1.14E-03  1.09E-03  1.04E-03  2.33E-03  1.62E-03  3.87E-03  1.20E-02  2.06E-02
 res:  9.22E-03
 ene: -7.16E-01 -7.15E-01 -6.94E-01 -6.93E-01 -1.08E-01 -1.08E-01 -9.70E-02 -9.66E-02
 ene:  5.21E-02  5.29E-02  7.79E-02  7.81E-02  1.01E-01  1.03E-01  1.20E-01  1.21E-01
 ene:  3.80E-01
 vtowfk : number of one-way 3D ffts skipped in vtowfk until now =6
     eigenvalues (hartree) for   17  bands
              after    3 non-SCF iterations with    4 CG line minimizations
 -7.1551E-01 -7.1503E-01 -6.9374E-01 -6.9287E-01 -1.0816E-01 -1.0758E-01
 -9.7000E-02 -9.6552E-02  5.2107E-02  5.2927E-02  7.7880E-02  7.8132E-02
  1.0135E-01  1.0295E-01  1.2022E-01  1.2120E-01  3.7970E-01
 non-scf iterations; kpt #     7  , k= (  0.00000  0.25000  0.50000  ), band residuals:
 res:  3.33E-01  2.44E-01  1.83E-01  2.17E-01  2.22E-01  2.04E-01  1.45E-01  1.67E-01
 res:  1.10E-01  1.98E-01  1.17E-01  1.62E-01  1.34E-01  1.18E-01  1.26E-01  1.68E-01
 res:  2.12E-01
 ene: -6.58E-01 -6.40E-01 -6.14E-01 -5.63E-01 -8.51E-02 -7.87E-02 -4.36E-02 -3.28E-02
 ene: -7.55E-03 -6.04E-04  6.36E-02  7.52E-02  8.95E-02  1.19E-01  1.30E-01  2.27E-01
 ene:  5.25E-01
 res:  1.30E-03  2.28E-03  2.65E-03  6.98E-03  1.08E-03  1.73E-03  1.01E-03  2.49E-03
 res:  1.57E-03  1.95E-03  8.40E-04  8.44E-04  1.79E-03  2.93E-03  4.73E-03  9.93E-03
 res:  8.47E-03
 ene: -7.05E-01 -7.05E-01 -6.90E-01 -6.90E-01 -1.09E-01 -1.09E-01 -6.44E-02 -6.39E-02
 ene: -3.02E-02 -3.01E-02  4.86E-02  4.88E-02  6.14E-02  6.18E-02  9.56E-02  9.61E-02
 ene:  4.15E-01
 vtowfk : number of one-way 3D ffts skipped in vtowfk until now =7
     eigenvalues (hartree) for   17  bands
              after    3 non-SCF iterations with    4 CG line minimizations
 -7.0541E-01 -7.0460E-01 -6.9025E-01 -6.8971E-01 -1.0931E-01 -1.0906E-01
 -6.4364E-02 -6.3927E-02 -3.0235E-02 -3.0068E-02  4.8560E-02  4.8774E-02
  6.1372E-02  6.1836E-02  9.5602E-02  9.6102E-02  4.1468E-01
 non-scf iterations; kpt #     8  , k= (  0.25000  0.50000  0.50000  ), band residuals:
 res:  3.65E-01  2.96E-01  2.21E-01  1.75E-01  1.82E-01  1.69E-01  1.82E-01  2.21E-01
 res:  1.45E-01  1.47E-01  1.60E-01  2.25E-01  1.20E-01  1.64E-01  1.58E-01  1.11E-01
 res:  1.27E-01
 ene: -6.58E-01 -6.40E-01 -6.23E-01 -5.85E-01 -1.20E-01 -9.10E-02 -8.18E-02 -6.32E-02
 ene:  3.24E-02  4.58E-02  9.47E-02  1.11E-01  1.49E-01  1.81E-01  2.41E-01  3.24E-01
 ene:  4.64E-01
 res:  1.12E-03  2.27E-03  2.93E-03  5.92E-03  8.45E-04  1.94E-03  1.54E-03  3.03E-03
 res:  9.85E-04  3.09E-03  1.16E-03  2.65E-03  3.32E-03  6.99E-03  1.22E-02  3.40E-02
 res:  1.05E-02
 ene: -7.02E-01 -7.02E-01 -6.93E-01 -6.93E-01 -1.33E-01 -1.32E-01 -9.86E-02 -9.81E-02
 ene:  1.31E-02  1.42E-02  6.95E-02  7.13E-02  9.87E-02  1.01E-01  1.26E-01  1.30E-01
 ene:  3.67E-01
 vtowfk : number of one-way 3D ffts skipped in vtowfk until now =8
     eigenvalues (hartree) for   17  bands
              after    3 non-SCF iterations with    4 CG line minimizations
 -7.0223E-01 -7.0172E-01 -6.9268E-01 -6.9251E-01 -1.3280E-01 -1.3224E-01
 -9.8647E-02 -9.8128E-02  1.3142E-02  1.4170E-02  6.9537E-02  7.1344E-02
  9.8709E-02  1.0064E-01  1.2577E-01  1.2986E-01  3.6690E-01
 Total charge density [el/Bohr^3]
      Maximum=    4.8757E-01  at reduced coord.    0.6333    0.6333    0.0000
      Minimum=    7.0527E-04  at reduced coord.    0.0000    0.0000    0.0000
   Integrated=    3.2000E+01
 ETOT  1  -67.903247857323    -6.790E+01 3.881E-02 3.194E+02
 scprqt: <Vxc>= -4.5397707E-01 hartree

Simple mixing update:
  residual square of the potential :   181.27500522240007
 scfcv: previous iteration took 00 [s]

 ITER STEP NUMBER     2
 vtorho : nnsclo_now=2, note that nnsclo,dbl_nnsclo,istep=0 0 2
 non-scf iterations; kpt #     1  , k= (  0.00000  0.25000  0.00000  ), band residuals:
 res:  2.02E-02  5.72E-03  3.66E-03  2.66E-03  1.33E-03  2.62E-03  1.38E-03  1.95E-03
 res:  1.28E-03  3.63E-04  2.76E-04  6.46E-04  1.27E-02  2.92E-03  1.82E-03  2.04E-02
 res:  1.74E-02
 ene: -1.01E+00 -9.90E-01 -9.77E-01 -9.76E-01 -2.57E-01 -1.95E-01 -1.80E-01 -1.22E-01
 ene: -1.18E-01 -1.17E-01 -1.08E-01 -9.31E-02 -6.06E-02 -4.40E-02 -1.13E-02 -9.60E-03
 ene:  1.75E-01
 res:  9.16E-06  7.51E-06  5.65E-06  1.78E-05  6.37E-06  2.60E-06  5.00E-06  1.30E-06
 res:  4.00E-06  4.23E-06  4.45E-07  4.24E-07  1.89E-05  1.50E-05  6.97E-06  4.43E-05
 res:  2.36E-04
 ene: -1.01E+00 -9.90E-01 -9.77E-01 -9.77E-01 -2.57E-01 -1.95E-01 -1.80E-01 -1.22E-01
 ene: -1.19E-01 -1.17E-01 -1.08E-01 -9.32E-02 -6.18E-02 -4.49E-02 -1.17E-02 -1.15E-02
 ene:  1.73E-01
 vtowfk : number of one-way 3D ffts skipped in vtowfk until now =9
     eigenvalues (hartree) for   17  bands
              after    3 non-SCF iterations with    4 CG line minimizations
 -1.0142E+00 -9.9030E-01 -9.7711E-01 -9.7668E-01 -2.5705E-01 -1.9470E-01
 -1.7971E-01 -1.2195E-01 -1.1857E-01 -1.1732E-01 -1.0808E-01 -9.3171E-02
 -6.1824E-02 -4.4928E-02 -1.1731E-02 -1.1496E-02  1.7272E-01
 non-scf iterations; kpt #     2  , k= (  0.25000  0.50000  0.00000  ), band residuals:
 res:  1.41E-02  6.83E-03  3.86E-03  4.41E-03  2.15E-03  2.27E-03  7.75E-03  7.01E-03
 res:  1.88E-04  2.18E-04  1.14E-03  1.29E-03  1.71E-04  2.27E-04  1.25E-03  1.49E-03
 res:  1.41E-02
 ene: -1.00E+00 -1.00E+00 -9.78E-01 -9.78E-01 -2.22E-01 -2.22E-01 -1.44E-01 -1.44E-01
 ene: -1.12E-01 -1.12E-01 -7.29E-02 -7.29E-02 -6.79E-02 -6.79E-02 -2.33E-02 -2.32E-02
 ene:  2.81E-01
 res:  2.00E-06  7.61E-06  2.28E-06  4.79E-06  1.10E-06  4.57E-06  1.80E-06  5.77E-06
 res:  1.42E-07  1.61E-07  1.72E-07  8.32E-07  9.01E-07  1.89E-06  8.52E-07  2.51E-06
 res:  4.28E-04
 ene: -1.00E+00 -1.00E+00 -9.78E-01 -9.78E-01 -2.22E-01 -2.22E-01 -1.44E-01 -1.44E-01
 ene: -1.12E-01 -1.12E-01 -7.29E-02 -7.29E-02 -6.80E-02 -6.80E-02 -2.33E-02 -2.33E-02
 ene:  2.79E-01
 vtowfk : number of one-way 3D ffts skipped in vtowfk until now =10
     eigenvalues (hartree) for   17  bands
              after    3 non-SCF iterations with    4 CG line minimizations
 -1.0016E+00 -1.0016E+00 -9.7779E-01 -9.7779E-01 -2.2221E-01 -2.2221E-01
 -1.4444E-01 -1.4444E-01 -1.1164E-01 -1.1164E-01 -7.2896E-02 -7.2896E-02
 -6.7964E-02 -6.7963E-02 -2.3323E-02 -2.3323E-02  2.7865E-01
 non-scf iterations; kpt #     3  , k= (  0.00000  0.00000  0.25000  ), band residuals:
 res:  2.09E-02  1.17E-03  1.10E-03  1.10E-03  8.30E-04  5.39E-04  4.98E-04  1.11E-03
 res:  1.21E-03  3.36E-03  8.44E-03  1.10E-04  1.50E-04  3.09E-04  6.22E-04  7.08E-04
 res:  1.60E-02
 ene: -1.01E+00 -9.82E-01 -9.78E-01 -9.78E-01 -2.40E-01 -1.77E-01 -1.58E-01 -1.55E-01
 ene: -1.50E-01 -1.50E-01 -1.30E-01 -9.79E-02 -9.79E-02 -3.13E-02 -2.60E-02 -2.60E-02
 ene:  2.18E-01
 res:  4.39E-06  1.56E-06  8.74E-07  1.29E-06  4.09E-07  9.19E-07  3.20E-06  1.58E-06
 res:  1.04E-06  1.79E-06  5.11E-06  1.97E-07  2.83E-07  6.79E-07  8.92E-07  1.05E-06
 res:  3.20E-05
 ene: -1.01E+00 -9.82E-01 -9.78E-01 -9.78E-01 -2.40E-01 -1.77E-01 -1.58E-01 -1.56E-01
 ene: -1.50E-01 -1.50E-01 -1.30E-01 -9.79E-02 -9.79E-02 -3.14E-02 -2.61E-02 -2.61E-02
 ene:  2.17E-01
 vtowfk : number of one-way 3D ffts skipped in vtowfk until now =11
     eigenvalues (hartree) for   17  bands
              after    3 non-SCF iterations with    4 CG line minimizations
 -1.0073E+00 -9.8210E-01 -9.7804E-01 -9.7804E-01 -2.3966E-01 -1.7691E-01
 -1.5775E-01 -1.5552E-01 -1.5005E-01 -1.5005E-01 -1.3009E-01 -9.7884E-02
 -9.7884E-02 -3.1352E-02 -2.6061E-02 -2.6061E-02  2.1743E-01
 non-scf iterations; kpt #     4  , k= (  0.00000  0.50000  0.25000  ), band residuals:
 res:  1.06E-02  7.33E-03  1.78E-03  1.31E-03  8.17E-04  7.40E-04  5.49E-03  5.66E-03
 res:  8.71E-04  2.11E-03  6.37E-04  9.09E-04  9.04E-04  9.46E-04  1.02E-03  1.08E-03
 res:  1.72E-02
 ene: -9.95E-01 -9.94E-01 -9.78E-01 -9.78E-01 -2.09E-01 -2.09E-01 -1.80E-01 -1.80E-01
 ene: -1.39E-01 -1.38E-01 -9.36E-02 -9.35E-02 -6.47E-02 -6.43E-02 -2.94E-02 -2.91E-02
 ene:  3.13E-01
 res:  2.11E-06  1.42E-05  9.66E-07  6.45E-06  1.67E-06  1.99E-06  1.22E-06  9.18E-06
 res:  9.58E-07  1.40E-05  3.68E-07  1.84E-06  6.50E-07  6.73E-06  7.11E-07  6.71E-06
 res:  5.76E-04
 ene: -9.95E-01 -9.95E-01 -9.78E-01 -9.78E-01 -2.09E-01 -2.09E-01 -1.80E-01 -1.80E-01
 ene: -1.39E-01 -1.39E-01 -9.36E-02 -9.36E-02 -6.47E-02 -6.47E-02 -2.95E-02 -2.95E-02
 ene:  3.09E-01
 vtowfk : number of one-way 3D ffts skipped in vtowfk until now =12
     eigenvalues (hartree) for   17  bands
              after    3 non-SCF iterations with    4 CG line minimizations
 -9.9519E-01 -9.9519E-01 -9.7808E-01 -9.7808E-01 -2.0861E-01 -2.0861E-01
 -1.8019E-01 -1.8019E-01 -1.3875E-01 -1.3875E-01 -9.3635E-02 -9.3635E-02
 -6.4685E-02 -6.4685E-02 -2.9454E-02 -2.9453E-02  3.0939E-01
 non-scf iterations; kpt #     5  , k= (  0.25000  0.25000  0.25000  ), band residuals:
 res:  7.21E-03  2.66E-03  6.57E-03  1.34E-03  1.69E-03  8.69E-04  3.00E-03  6.16E-03
 res:  5.28E-04  5.82E-04  1.23E-03  2.98E-04  8.44E-04  1.11E-03  1.20E-03  9.98E-04
 res:  4.00E-02
 ene: -1.00E+00 -9.88E-01 -9.78E-01 -9.76E-01 -2.31E-01 -2.00E-01 -1.80E-01 -1.63E-01
 ene: -1.41E-01 -1.11E-01 -1.04E-01 -8.85E-02 -7.86E-02 -4.99E-02 -3.03E-02 -1.45E-02
 ene:  2.96E-01
 res:  6.97E-06  3.12E-06  2.27E-06  3.59E-05  1.63E-06  2.67E-06  2.35E-05  2.42E-06
 res:  8.00E-06  1.11E-05  1.39E-06  9.37E-07  4.72E-06  2.26E-06  1.43E-05  1.67E-06
 res:  2.75E-03
 ene: -1.00E+00 -9.88E-01 -9.79E-01 -9.78E-01 -2.31E-01 -2.00E-01 -1.81E-01 -1.63E-01
 ene: -1.42E-01 -1.12E-01 -1.04E-01 -8.86E-02 -7.89E-02 -5.00E-02 -3.11E-02 -1.46E-02
 ene:  2.65E-01
 vtowfk : number of one-way 3D ffts skipped in vtowfk until now =13
     eigenvalues (hartree) for   17  bands
              after    3 non-SCF iterations with    4 CG line minimizations
 -1.0010E+00 -9.8816E-01 -9.7887E-01 -9.7813E-01 -2.3083E-01 -2.0049E-01
 -1.8086E-01 -1.6303E-01 -1.4151E-01 -1.1217E-01 -1.0436E-01 -8.8575E-02
 -7.8863E-02 -5.0004E-02 -3.1055E-02 -1.4612E-02  2.6492E-01
 non-scf iterations; kpt #     6  , k= (  0.50000  0.50000  0.25000  ), band residuals:
 res:  2.71E-03  2.57E-03  6.83E-03  5.19E-03  2.41E-03  2.46E-03  2.97E-03  2.78E-03
 res:  5.07E-04  5.61E-04  2.22E-03  1.08E-03  4.37E-04  5.02E-04  1.20E-03  1.32E-03
 res:  8.53E-03
 ene: -9.93E-01 -9.93E-01 -9.80E-01 -9.80E-01 -2.22E-01 -2.22E-01 -1.87E-01 -1.87E-01
 ene: -9.40E-02 -9.40E-02 -6.85E-02 -6.83E-02 -4.38E-02 -4.37E-02 -3.32E-02 -3.32E-02
 ene:  3.56E-01
 res:  1.04E-06  1.10E-06  2.39E-06  2.21E-06  8.09E-07  9.08E-07  1.02E-06  1.45E-06
 res:  2.92E-07  3.13E-07  4.29E-07  2.03E-06  8.12E-07  1.88E-06  2.12E-07  2.55E-07
 res:  2.20E-04
 ene: -9.93E-01 -9.93E-01 -9.80E-01 -9.80E-01 -2.22E-01 -2.22E-01 -1.87E-01 -1.87E-01
 ene: -9.40E-02 -9.40E-02 -6.85E-02 -6.85E-02 -4.38E-02 -4.38E-02 -3.32E-02 -3.32E-02
 ene:  3.55E-01
 vtowfk : number of one-way 3D ffts skipped in vtowfk until now =14
     eigenvalues (hartree) for   17  bands
              after    3 non-SCF iterations with    4 CG line minimizations
 -9.9330E-01 -9.9330E-01 -9.7977E-01 -9.7977E-01 -2.2227E-01 -2.2227E-01
 -1.8748E-01 -1.8748E-01 -9.3974E-02 -9.3974E-02 -6.8522E-02 -6.8522E-02
 -4.3813E-02 -4.3813E-02 -3.3215E-02 -3.3215E-02  3.5459E-01
 non-scf iterations; kpt #     7  , k= (  0.00000  0.25000  0.50000  ), band residuals:
 res:  3.46E-03  6.17E-03  1.03E-03  8.10E-04  1.54E-03  1.47E-03  2.10E-03  2.39E-03
 res:  6.96E-04  8.87E-04  1.05E-03  2.76E-03  4.55E-04  1.38E-03  6.25E-04  1.04E-03
 res:  9.28E-03
 ene: -9.87E-01 -9.87E-01 -9.80E-01 -9.80E-01 -2.03E-01 -2.03E-01 -1.85E-01 -1.84E-01
 ene: -1.41E-01 -1.41E-01 -8.79E-02 -8.79E-02 -7.30E-02 -7.27E-02 -4.98E-02 -4.97E-02
 ene:  3.69E-01
 res:  1.10E-06  1.65E-06  8.20E-07  1.03E-06  1.38E-06  7.96E-07  4.39E-07  3.36E-07
 res:  1.32E-06  9.88E-07  4.05E-07  7.90E-07  7.53E-07  4.85E-06  4.95E-07  1.69E-06
 res:  2.23E-03
 ene: -9.87E-01 -9.87E-01 -9.80E-01 -9.80E-01 -2.03E-01 -2.03E-01 -1.85E-01 -1.84E-01
 ene: -1.41E-01 -1.41E-01 -8.80E-02 -8.80E-02 -7.31E-02 -7.30E-02 -4.98E-02 -4.98E-02
 ene:  3.62E-01
 vtowfk : number of one-way 3D ffts skipped in vtowfk until now =15
     eigenvalues (hartree) for   17  bands
              after    3 non-SCF iterations with    4 CG line minimizations
 -9.8680E-01 -9.8678E-01 -9.7998E-01 -9.7998E-01 -2.0281E-01 -2.0272E-01
 -1.8453E-01 -1.8449E-01 -1.4099E-01 -1.4093E-01 -8.7974E-02 -8.7953E-02
 -7.3052E-02 -7.3037E-02 -4.9800E-02 -4.9779E-02  3.6219E-01
 non-scf iterations; kpt #     8  , k= (  0.25000  0.50000  0.50000  ), band residuals:
 res:  2.22E-03  2.05E-03  1.23E-03  4.73E-03  7.25E-04  7.53E-04  1.11E-03  1.16E-03
 res:  9.38E-04  1.05E-03  4.62E-04  5.69E-04  1.67E-03  1.51E-03  2.73E-04  5.15E-04
 res:  9.68E-03
 ene: -9.86E-01 -9.86E-01 -9.81E-01 -9.81E-01 -2.25E-01 -2.25E-01 -1.90E-01 -1.90E-01
 ene: -1.25E-01 -1.25E-01 -9.03E-02 -9.03E-02 -4.57E-02 -4.55E-02 -2.83E-02 -2.83E-02
 ene:  3.41E-01
 res:  7.12E-07  2.04E-06  1.22E-06  2.14E-06  1.38E-06  1.44E-06  1.29E-06  1.72E-06
 res:  5.90E-07  6.71E-07  2.71E-07  9.58E-07  6.63E-07  2.33E-06  5.17E-07  1.32E-06
 res:  1.65E-03
 ene: -9.86E-01 -9.86E-01 -9.81E-01 -9.81E-01 -2.25E-01 -2.25E-01 -1.90E-01 -1.90E-01
 ene: -1.25E-01 -1.25E-01 -9.03E-02 -9.03E-02 -4.57E-02 -4.57E-02 -2.83E-02 -2.83E-02
 ene:  3.36E-01
 vtowfk : number of one-way 3D ffts skipped in vtowfk until now =16
     eigenvalues (hartree) for   17  bands
              after    3 non-SCF iterations with    4 CG line minimizations
 -9.8578E-01 -9.8577E-01 -9.8097E-01 -9.8097E-01 -2.2513E-01 -2.2513E-01
 -1.8996E-01 -1.8996E-01 -1.2547E-01 -1.2547E-01 -9.0328E-02 -9.0328E-02
 -4.5684E-02 -4.5683E-02 -2.8322E-02 -2.8322E-02  3.3647E-01
 Total charge density [el/Bohr^3]
      Maximum=    6.1550E-01  at reduced coord.    0.6333    0.6667    0.0556
      Minimum=    3.6094E-04  at reduced coord.    0.0000    0.0000    0.0000
   Integrated=    3.2000E+01
 ETOT  2  -68.310724474704    -4.075E-01 2.747E-03 1.042E+02
 scprqt: <Vxc>= -4.3142792E-01 hartree

 Pulay update with  1 previous iterations:
 mixing of old trial potential : alpha(m:m-4)=  0.647      0.353
 scfcv: previous iteration took 00 [s]

 ITER STEP NUMBER     3
 vtorho : nnsclo_now=1, note that nnsclo,dbl_nnsclo,istep=0 0 3
 non-scf iterations; kpt #     1  , k= (  0.00000  0.25000  0.00000  ), band residuals:
 res:  2.15E-03  2.31E-04  9.52E-05  4.71E-05  1.29E-04  1.17E-04  1.33E-04  1.51E-05
 res:  9.16E-05  1.10E-04  3.48E-05  3.61E-05  1.03E-03  3.46E-05  9.30E-05  1.43E-04
 res:  2.40E-03
 ene: -9.02E-01 -8.72E-01 -8.56E-01 -8.55E-01 -2.01E-01 -1.33E-01 -1.24E-01 -5.36E-02
 ene: -4.74E-02 -4.57E-02 -3.26E-02 -1.60E-02  8.72E-03  3.98E-02  7.45E-02  7.50E-02
 ene:  2.23E-01
 vtowfk : number of one-way 3D ffts skipped in vtowfk until now =17
     eigenvalues (hartree) for   17  bands
              after    2 non-SCF iterations with    4 CG line minimizations
 -9.0179E-01 -8.7195E-01 -8.5617E-01 -8.5527E-01 -2.0113E-01 -1.3312E-01
 -1.2381E-01 -5.3615E-02 -4.7364E-02 -4.5734E-02 -3.2650E-02 -1.5980E-02
  8.7246E-03  3.9760E-02  7.4478E-02  7.4989E-02  2.2263E-01
 non-scf iterations; kpt #     2  , k= (  0.25000  0.50000  0.00000  ), band residuals:
 res:  4.58E-04  1.47E-03  2.43E-04  2.08E-04  1.84E-04  2.33E-04  4.38E-04  6.42E-04
 res:  2.80E-05  2.79E-05  2.76E-05  2.77E-05  8.83E-05  8.59E-05  1.27E-04  1.27E-04
 res:  2.00E-03
 ene: -8.86E-01 -8.86E-01 -8.57E-01 -8.57E-01 -1.64E-01 -1.64E-01 -8.48E-02 -8.48E-02
 ene: -3.62E-02 -3.62E-02  2.59E-03  2.59E-03  7.19E-03  7.19E-03  5.64E-02  5.64E-02
 ene:  3.16E-01
 vtowfk : number of one-way 3D ffts skipped in vtowfk until now =18
     eigenvalues (hartree) for   17  bands
              after    2 non-SCF iterations with    4 CG line minimizations
 -8.8604E-01 -8.8603E-01 -8.5709E-01 -8.5709E-01 -1.6424E-01 -1.6424E-01
 -8.4806E-02 -8.4801E-02 -3.6172E-02 -3.6172E-02  2.5921E-03  2.5929E-03
  7.1915E-03  7.1915E-03  5.6393E-02  5.6393E-02  3.1610E-01
 non-scf iterations; kpt #     3  , k= (  0.00000  0.00000  0.25000  ), band residuals:
 res:  1.98E-03  8.04E-05  3.83E-05  3.82E-05  7.47E-05  6.73E-05  2.26E-05  5.29E-05
 res:  5.65E-05  5.64E-05  9.93E-04  8.23E-06  8.22E-06  1.30E-05  1.03E-04  1.03E-04
 res:  2.26E-03
 ene: -8.93E-01 -8.61E-01 -8.57E-01 -8.57E-01 -1.83E-01 -1.07E-01 -1.02E-01 -9.55E-02
 ene: -8.83E-02 -8.83E-02 -6.37E-02 -2.59E-02 -2.59E-02  5.45E-02  5.63E-02  5.63E-02
 ene:  2.67E-01
 vtowfk : number of one-way 3D ffts skipped in vtowfk until now =19
     eigenvalues (hartree) for   17  bands
              after    2 non-SCF iterations with    4 CG line minimizations
 -8.9349E-01 -8.6149E-01 -8.5694E-01 -8.5694E-01 -1.8300E-01 -1.0666E-01
 -1.0154E-01 -9.5514E-02 -8.8293E-02 -8.8293E-02 -6.3669E-02 -2.5895E-02
 -2.5895E-02  5.4479E-02  5.6342E-02  5.6342E-02  2.6718E-01
 non-scf iterations; kpt #     4  , k= (  0.00000  0.50000  0.25000  ), band residuals:
 res:  3.34E-04  1.47E-03  5.86E-05  9.01E-05  1.17E-04  1.43E-04  2.68E-04  6.16E-04
 res:  4.46E-05  2.28E-04  6.79E-05  6.75E-05  8.16E-05  8.87E-05  8.95E-05  8.93E-05
 res:  2.07E-03
 ene: -8.78E-01 -8.78E-01 -8.57E-01 -8.57E-01 -1.49E-01 -1.49E-01 -1.22E-01 -1.22E-01
 ene: -7.43E-02 -7.43E-02 -2.08E-02 -2.08E-02  1.35E-02  1.35E-02  5.14E-02  5.14E-02
 ene:  3.54E-01
 vtowfk : number of one-way 3D ffts skipped in vtowfk until now =20
     eigenvalues (hartree) for   17  bands
              after    2 non-SCF iterations with    4 CG line minimizations
 -8.7838E-01 -8.7838E-01 -8.5676E-01 -8.5676E-01 -1.4913E-01 -1.4913E-01
 -1.2209E-01 -1.2209E-01 -7.4300E-02 -7.4299E-02 -2.0769E-02 -2.0769E-02
  1.3546E-02  1.3546E-02  5.1394E-02  5.1394E-02  3.5389E-01
 non-scf iterations; kpt #     5  , k= (  0.25000  0.25000  0.25000  ), band residuals:
 res:  1.65E-03  1.68E-04  1.01E-04  8.98E-05  1.40E-04  8.95E-05  1.01E-04  6.79E-04
 res:  1.40E-04  9.02E-05  5.98E-05  2.05E-05  6.80E-05  1.13E-04  9.26E-05  4.32E-05
 res:  2.13E-03
 ene: -8.86E-01 -8.69E-01 -8.58E-01 -8.57E-01 -1.72E-01 -1.43E-01 -1.24E-01 -1.02E-01
 ene: -7.68E-02 -4.10E-02 -3.79E-02 -1.66E-02 -5.31E-03  3.22E-02  5.02E-02  6.89E-02
 ene:  3.06E-01
 vtowfk : number of one-way 3D ffts skipped in vtowfk until now =21
     eigenvalues (hartree) for   17  bands
              after    2 non-SCF iterations with    4 CG line minimizations
 -8.8566E-01 -8.6929E-01 -8.5811E-01 -8.5682E-01 -1.7228E-01 -1.4339E-01
 -1.2426E-01 -1.0189E-01 -7.6830E-02 -4.1005E-02 -3.7914E-02 -1.6617E-02
 -5.3055E-03  3.2214E-02  5.0186E-02  6.8941E-02  3.0587E-01
 non-scf iterations; kpt #     6  , k= (  0.50000  0.50000  0.25000  ), band residuals:
 res:  1.70E-04  1.78E-04  2.29E-04  7.04E-04  1.81E-04  1.83E-04  1.78E-04  2.20E-04
 res:  6.18E-05  6.18E-05  5.33E-05  1.57E-04  9.89E-05  1.75E-04  9.77E-06  1.03E-05
 res:  1.18E-03
 ene: -8.76E-01 -8.76E-01 -8.59E-01 -8.59E-01 -1.65E-01 -1.65E-01 -1.32E-01 -1.32E-01
 ene: -2.29E-02 -2.29E-02  4.85E-03  4.85E-03  3.56E-02  3.56E-02  4.21E-02  4.21E-02
 ene:  3.83E-01
 vtowfk : number of one-way 3D ffts skipped in vtowfk until now =22
     eigenvalues (hartree) for   17  bands
              after    2 non-SCF iterations with    4 CG line minimizations
 -8.7569E-01 -8.7569E-01 -8.5933E-01 -8.5933E-01 -1.6508E-01 -1.6508E-01
 -1.3184E-01 -1.3184E-01 -2.2926E-02 -2.2926E-02  4.8470E-03  4.8514E-03
  3.5581E-02  3.5589E-02  4.2062E-02  4.2062E-02  3.8261E-01
 non-scf iterations; kpt #     7  , k= (  0.00000  0.25000  0.50000  ), band residuals:
 res:  2.19E-04  9.41E-04  2.76E-05  2.87E-05  1.61E-04  8.81E-05  1.60E-04  2.69E-04
 res:  1.81E-04  7.94E-05  5.04E-05  3.82E-05  6.83E-05  1.31E-04  9.31E-05  7.28E-05
 res:  1.38E-03
 ene: -8.68E-01 -8.68E-01 -8.59E-01 -8.59E-01 -1.50E-01 -1.50E-01 -1.22E-01 -1.22E-01
 ene: -8.11E-02 -8.11E-02 -1.54E-02 -1.54E-02 -9.36E-04 -9.31E-04  2.51E-02  2.51E-02
 ene:  3.96E-01
 vtowfk : number of one-way 3D ffts skipped in vtowfk until now =23
     eigenvalues (hartree) for   17  bands
              after    2 non-SCF iterations with    4 CG line minimizations
 -8.6793E-01 -8.6793E-01 -8.5885E-01 -8.5885E-01 -1.4983E-01 -1.4981E-01
 -1.2209E-01 -1.2208E-01 -8.1078E-02 -8.1062E-02 -1.5448E-02 -1.5445E-02
 -9.3648E-04 -9.3121E-04  2.5104E-02  2.5110E-02  3.9551E-01
 non-scf iterations; kpt #     8  , k= (  0.25000  0.50000  0.50000  ), band residuals:
 res:  1.05E-04  3.24E-04  4.51E-05  4.93E-04  6.89E-05  7.34E-05  8.28E-05  8.17E-05
 res:  6.02E-05  1.14E-04  3.95E-05  4.72E-05  9.64E-05  1.80E-04  3.81E-05  5.65E-05
 res:  1.08E-03
 ene: -8.66E-01 -8.66E-01 -8.60E-01 -8.60E-01 -1.73E-01 -1.73E-01 -1.36E-01 -1.36E-01
 ene: -5.67E-02 -5.67E-02 -1.52E-02 -1.52E-02  3.15E-02  3.15E-02  5.23E-02  5.23E-02
 ene:  3.62E-01
 vtowfk : number of one-way 3D ffts skipped in vtowfk until now =24
     eigenvalues (hartree) for   17  bands
              after    2 non-SCF iterations with    4 CG line minimizations
 -8.6648E-01 -8.6648E-01 -8.6022E-01 -8.6022E-01 -1.7297E-01 -1.7297E-01
 -1.3590E-01 -1.3590E-01 -5.6710E-02 -5.6710E-02 -1.5200E-02 -1.5200E-02
  3.1490E-02  3.1490E-02  5.2255E-02  5.2256E-02  3.6159E-01
 Total charge density [el/Bohr^3]
      Maximum=    5.6838E-01  at reduced coord.    0.6333    0.6667    0.0556
      Minimum=    5.3518E-04  at reduced coord.    0.0000    0.0000    0.0000
   Integrated=    3.2000E+01
 ETOT  3  -68.471610593990    -1.609E-01 2.400E-03 5.379E-01
 scprqt: <Vxc>= -4.3990502E-01 hartree

 Pulay update with  2 previous iterations:
 mixing of old trial potential : alpha(m:m-4)=   1.20     -0.125     -0.707E-01
 scfcv: previous iteration took 00 [s]

 ITER STEP NUMBER     4
 vtorho : nnsclo_now=1, note that nnsclo,dbl_nnsclo,istep=0 0 4
 non-scf iterations; kpt #     1  , k= (  0.00000  0.25000  0.00000  ), band residuals:
 res:  3.19E-07  2.91E-07  1.55E-07  2.63E-07  5.61E-07  8.89E-07  1.15E-06  7.40E-07
 res:  1.23E-07  6.07E-07  1.38E-07  1.48E-07  9.30E-07  1.04E-07  2.01E-07  6.77E-07
 res:  1.63E-06
 ene: -9.10E-01 -8.80E-01 -8.64E-01 -8.64E-01 -2.10E-01 -1.41E-01 -1.31E-01 -6.15E-02
 ene: -5.57E-02 -5.40E-02 -4.13E-02 -2.44E-02  1.08E-03  3.16E-02  6.74E-02  6.75E-02
 ene:  2.14E-01
 vtowfk : number of one-way 3D ffts skipped in vtowfk until now =25
     eigenvalues (hartree) for   17  bands
              after    2 non-SCF iterations with    4 CG line minimizations
 -9.1002E-01 -8.8021E-01 -8.6443E-01 -8.6354E-01 -2.0978E-01 -1.4131E-01
 -1.3068E-01 -6.1549E-02 -5.5734E-02 -5.3974E-02 -4.1261E-02 -2.4414E-02
  1.0794E-03  3.1567E-02  6.7398E-02  6.7487E-02  2.1448E-01
 non-scf iterations; kpt #     2  , k= (  0.25000  0.50000  0.00000  ), band residuals:
 res:  2.99E-07  5.96E-07  2.25E-07  2.65E-07  7.29E-07  8.55E-07  1.04E-06  1.22E-06
 res:  1.22E-07  1.22E-07  8.32E-07  8.75E-07  1.22E-07  1.22E-07  6.15E-07  6.57E-07
 res:  5.10E-05
 ene: -8.94E-01 -8.94E-01 -8.65E-01 -8.65E-01 -1.73E-01 -1.73E-01 -9.21E-02 -9.21E-02
 ene: -4.47E-02 -4.47E-02 -5.23E-03 -5.23E-03 -1.07E-03 -1.07E-03  4.89E-02  4.89E-02
 ene:  3.07E-01
 vtowfk : number of one-way 3D ffts skipped in vtowfk until now =26
     eigenvalues (hartree) for   17  bands
              after    2 non-SCF iterations with    4 CG line minimizations
 -8.9430E-01 -8.9430E-01 -8.6535E-01 -8.6535E-01 -1.7271E-01 -1.7271E-01
 -9.2104E-02 -9.2104E-02 -4.4654E-02 -4.4654E-02 -5.2282E-03 -5.2282E-03
 -1.0732E-03 -1.0732E-03  4.8884E-02  4.8884E-02  3.0689E-01
 non-scf iterations; kpt #     3  , k= (  0.00000  0.00000  0.25000  ), band residuals:
 res:  2.71E-07  3.54E-07  1.21E-07  1.69E-07  2.74E-07  1.67E-07  4.77E-07  4.46E-07
 res:  5.29E-07  5.40E-07  3.73E-07  2.34E-07  2.34E-07  3.18E-08  8.98E-07  8.99E-07
 res:  7.60E-07
 ene: -9.02E-01 -8.70E-01 -8.65E-01 -8.65E-01 -1.92E-01 -1.15E-01 -1.08E-01 -1.04E-01
 ene: -9.65E-02 -9.65E-02 -7.22E-02 -3.41E-02 -3.41E-02  4.76E-02  4.86E-02  4.86E-02
 ene:  2.59E-01
 vtowfk : number of one-way 3D ffts skipped in vtowfk until now =27
     eigenvalues (hartree) for   17  bands
              after    2 non-SCF iterations with    4 CG line minimizations
 -9.0172E-01 -8.6976E-01 -8.6521E-01 -8.6521E-01 -1.9171E-01 -1.1508E-01
 -1.0828E-01 -1.0394E-01 -9.6486E-02 -9.6486E-02 -7.2185E-02 -3.4102E-02
 -3.4102E-02  4.7614E-02  4.8625E-02  4.8625E-02  2.5940E-01
 non-scf iterations; kpt #     4  , k= (  0.00000  0.50000  0.25000  ), band residuals:
 res:  2.16E-07  3.12E-07  2.66E-07  2.59E-07  5.72E-07  5.84E-07  1.20E-06  1.71E-06
 res:  6.51E-07  9.21E-07  8.27E-07  8.31E-07  6.93E-07  6.91E-07  4.62E-07  4.63E-07
 res:  2.06E-05
 ene: -8.87E-01 -8.87E-01 -8.65E-01 -8.65E-01 -1.57E-01 -1.57E-01 -1.30E-01 -1.30E-01
 ene: -8.24E-02 -8.24E-02 -2.89E-02 -2.89E-02  5.45E-03  5.45E-03  4.42E-02  4.42E-02
 ene:  3.45E-01
 vtowfk : number of one-way 3D ffts skipped in vtowfk until now =28
     eigenvalues (hartree) for   17  bands
              after    2 non-SCF iterations with    4 CG line minimizations
 -8.8663E-01 -8.8663E-01 -8.6503E-01 -8.6503E-01 -1.5745E-01 -1.5745E-01
 -1.3027E-01 -1.3027E-01 -8.2417E-02 -8.2417E-02 -2.8943E-02 -2.8943E-02
  5.4510E-03  5.4510E-03  4.4158E-02  4.4158E-02  3.4547E-01
 non-scf iterations; kpt #     5  , k= (  0.25000  0.25000  0.25000  ), band residuals:
 res:  4.67E-07  2.06E-07  2.17E-07  3.07E-07  2.94E-07  7.81E-07  1.18E-06  1.20E-06
 res:  3.60E-07  2.37E-07  9.06E-07  3.61E-07  5.49E-07  7.25E-07  6.72E-07  3.99E-07
 res:  1.65E-05
 ene: -8.94E-01 -8.78E-01 -8.66E-01 -8.65E-01 -1.81E-01 -1.52E-01 -1.32E-01 -1.10E-01
 ene: -8.53E-02 -4.95E-02 -4.54E-02 -2.47E-02 -1.37E-02  2.45E-02  4.25E-02  6.19E-02
 ene:  2.98E-01
 vtowfk : number of one-way 3D ffts skipped in vtowfk until now =29
     eigenvalues (hartree) for   17  bands
              after    2 non-SCF iterations with    4 CG line minimizations
 -8.9391E-01 -8.7755E-01 -8.6637E-01 -8.6510E-01 -1.8093E-01 -1.5159E-01
 -1.3178E-01 -1.1018E-01 -8.5253E-02 -4.9516E-02 -4.5393E-02 -2.4717E-02
 -1.3707E-02  2.4476E-02  4.2504E-02  6.1925E-02  2.9774E-01
 non-scf iterations; kpt #     6  , k= (  0.50000  0.50000  0.25000  ), band residuals:
 res:  2.41E-07  2.45E-07  1.32E-07  6.54E-07  2.86E-07  2.88E-07  9.63E-07  1.47E-06
 res:  2.02E-07  2.02E-07  1.90E-07  5.02E-07  9.50E-07  1.20E-06  1.22E-07  1.16E-07
 res:  8.34E-06
 ene: -8.84E-01 -8.84E-01 -8.68E-01 -8.68E-01 -1.74E-01 -1.74E-01 -1.39E-01 -1.39E-01
 ene: -3.14E-02 -3.14E-02 -3.36E-03 -3.36E-03  2.77E-02  2.77E-02  3.50E-02  3.50E-02
 ene:  3.75E-01
 vtowfk : number of one-way 3D ffts skipped in vtowfk until now =30
     eigenvalues (hartree) for   17  bands
              after    2 non-SCF iterations with    4 CG line minimizations
 -8.8396E-01 -8.8396E-01 -8.6758E-01 -8.6758E-01 -1.7371E-01 -1.7371E-01
 -1.3949E-01 -1.3949E-01 -3.1414E-02 -3.1414E-02 -3.3631E-03 -3.3631E-03
  2.7678E-02  2.7678E-02  3.4957E-02  3.4957E-02  3.7545E-01
 non-scf iterations; kpt #     7  , k= (  0.00000  0.25000  0.50000  ), band residuals:
 res:  2.35E-07  3.47E-07  2.62E-07  2.54E-07  9.26E-07  8.03E-07  3.90E-07  4.35E-07
 res:  7.29E-07  6.78E-07  7.49E-07  6.93E-07  7.62E-07  8.12E-07  7.43E-07  7.49E-07
 res:  2.66E-04
 ene: -8.76E-01 -8.76E-01 -8.67E-01 -8.67E-01 -1.58E-01 -1.58E-01 -1.30E-01 -1.30E-01
 ene: -8.92E-02 -8.92E-02 -2.38E-02 -2.38E-02 -8.33E-03 -8.33E-03  1.76E-02  1.76E-02
 ene:  3.87E-01
 vtowfk : number of one-way 3D ffts skipped in vtowfk until now =31
     eigenvalues (hartree) for   17  bands
              after    2 non-SCF iterations with    4 CG line minimizations
 -8.7617E-01 -8.7617E-01 -8.6713E-01 -8.6713E-01 -1.5830E-01 -1.5829E-01
 -1.3048E-01 -1.3048E-01 -8.9181E-02 -8.9172E-02 -2.3785E-02 -2.3782E-02
 -8.3337E-03 -8.3265E-03  1.7625E-02  1.7631E-02  3.8690E-01
 non-scf iterations; kpt #     8  , k= (  0.25000  0.50000  0.50000  ), band residuals:
 res:  1.73E-07  2.38E-07  2.91E-07  4.05E-07  5.50E-07  6.19E-07  8.70E-07  1.01E-06
 res:  3.84E-07  3.63E-07  1.58E-07  1.68E-07  7.43E-07  7.12E-07  4.35E-07  5.05E-07
 res:  6.59E-05
 ene: -8.75E-01 -8.75E-01 -8.68E-01 -8.68E-01 -1.82E-01 -1.82E-01 -1.44E-01 -1.44E-01
 ene: -6.50E-02 -6.50E-02 -2.39E-02 -2.39E-02  2.39E-02  2.39E-02  4.52E-02  4.52E-02
 ene:  3.54E-01
 vtowfk : number of one-way 3D ffts skipped in vtowfk until now =32
     eigenvalues (hartree) for   17  bands
              after    2 non-SCF iterations with    4 CG line minimizations
 -8.7473E-01 -8.7473E-01 -8.6848E-01 -8.6848E-01 -1.8150E-01 -1.8150E-01
 -1.4380E-01 -1.4380E-01 -6.5048E-02 -6.5048E-02 -2.3866E-02 -2.3866E-02
  2.3936E-02  2.3936E-02  4.5201E-02  4.5201E-02  3.5390E-01
 Total charge density [el/Bohr^3]
      Maximum=    5.6821E-01  at reduced coord.    0.1667    0.8667    0.5556
      Minimum=    5.6177E-04  at reduced coord.    0.0000    0.0000    0.0000
   Integrated=    3.2000E+01
 ETOT  4  -68.471923563571    -3.130E-04 2.657E-04 4.847E-03
 scprqt: <Vxc>= -4.3986879E-01 hartree

 Pulay update with  3 previous iterations:
 mixing of old trial potential : alpha(m:m-4)=   1.08     -0.101      0.122E-01  0.400E-02
 scfcv: previous iteration took 00 [s]

 ITER STEP NUMBER     5
 vtorho : nnsclo_now=1, note that nnsclo,dbl_nnsclo,istep=0 0 5
 non-scf iterations; kpt #     1  , k= (  0.00000  0.25000  0.00000  ), band residuals:
 res:  2.58E-08  6.72E-09  7.91E-09  7.35E-09  3.97E-09  1.33E-08  6.23E-09  8.78E-09
 res:  2.07E-09  1.08E-08  2.07E-09  2.35E-09  5.61E-08  2.37E-09  2.82E-09  8.70E-09
 res:  1.44E-07
 ene: -9.10E-01 -8.81E-01 -8.65E-01 -8.64E-01 -2.10E-01 -1.42E-01 -1.31E-01 -6.18E-02
 ene: -5.60E-02 -5.43E-02 -4.16E-02 -2.47E-02  8.93E-04  3.12E-02  6.71E-02  6.72E-02
 ene:  2.14E-01
 vtowfk : number of one-way 3D ffts skipped in vtowfk until now =33
     eigenvalues (hartree) for   17  bands
              after    2 non-SCF iterations with    4 CG line minimizations
 -9.1034E-01 -8.8055E-01 -8.6477E-01 -8.6389E-01 -2.1003E-01 -1.4155E-01
 -1.3074E-01 -6.1775E-02 -5.6013E-02 -5.4261E-02 -4.1553E-02 -2.4711E-02
  8.9309E-04  3.1233E-02  6.7124E-02  6.7153E-02  2.1445E-01
 non-scf iterations; kpt #     2  , k= (  0.25000  0.50000  0.00000  ), band residuals:
 res:  9.56E-09  1.61E-08  9.30E-09  9.53E-09  8.52E-09  9.55E-09  2.00E-08  3.62E-08
 res:  2.13E-09  2.13E-09  1.02E-08  1.01E-08  2.22E-09  2.22E-09  6.45E-09  7.16E-09
 res:  2.67E-06
 ene: -8.95E-01 -8.95E-01 -8.66E-01 -8.66E-01 -1.73E-01 -1.73E-01 -9.22E-02 -9.22E-02
 ene: -4.49E-02 -4.49E-02 -5.47E-03 -5.47E-03 -1.38E-03 -1.38E-03  4.86E-02  4.86E-02
 ene:  3.07E-01
 vtowfk : number of one-way 3D ffts skipped in vtowfk until now =34
     eigenvalues (hartree) for   17  bands
              after    2 non-SCF iterations with    4 CG line minimizations
 -8.9463E-01 -8.9463E-01 -8.6569E-01 -8.6569E-01 -1.7295E-01 -1.7295E-01
 -9.2225E-02 -9.2225E-02 -4.4941E-02 -4.4941E-02 -5.4731E-03 -5.4731E-03
 -1.3837E-03 -1.3837E-03  4.8603E-02  4.8603E-02  3.0685E-01
 non-scf iterations; kpt #     3  , k= (  0.00000  0.00000  0.25000  ), band residuals:
 res:  2.47E-08  4.27E-09  7.02E-09  7.13E-09  3.31E-09  1.45E-08  1.38E-09  2.71E-09
 res:  6.09E-09  6.20E-09  4.29E-08  3.19E-09  3.24E-09  8.34E-10  5.31E-09  5.31E-09
 res:  7.96E-08
 ene: -9.02E-01 -8.70E-01 -8.66E-01 -8.66E-01 -1.92E-01 -1.15E-01 -1.08E-01 -1.04E-01
 ene: -9.67E-02 -9.67E-02 -7.24E-02 -3.44E-02 -3.44E-02  4.74E-02  4.83E-02  4.83E-02
 ene:  2.59E-01
 vtowfk : number of one-way 3D ffts skipped in vtowfk until now =35
     eigenvalues (hartree) for   17  bands
              after    2 non-SCF iterations with    4 CG line minimizations
 -9.0204E-01 -8.7011E-01 -8.6555E-01 -8.6555E-01 -1.9196E-01 -1.1538E-01
 -1.0833E-01 -1.0415E-01 -9.6702E-02 -9.6702E-02 -7.2399E-02 -3.4371E-02
 -3.4371E-02  4.7365E-02  4.8309E-02  4.8309E-02  2.5942E-01
 non-scf iterations; kpt #     4  , k= (  0.00000  0.50000  0.25000  ), band residuals:
 res:  1.02E-08  1.65E-08  6.44E-09  6.55E-09  6.89E-09  6.70E-09  2.95E-08  1.24E-08
 res:  7.81E-09  2.25E-08  1.08E-08  1.04E-08  9.82E-09  8.01E-09  2.51E-09  2.37E-09
 res:  1.77E-06
 ene: -8.87E-01 -8.87E-01 -8.65E-01 -8.65E-01 -1.58E-01 -1.58E-01 -1.30E-01 -1.30E-01
 ene: -8.26E-02 -8.26E-02 -2.92E-02 -2.92E-02  5.16E-03  5.16E-03  4.39E-02  4.39E-02
 ene:  3.45E-01
 vtowfk : number of one-way 3D ffts skipped in vtowfk until now =36
     eigenvalues (hartree) for   17  bands
              after    2 non-SCF iterations with    4 CG line minimizations
 -8.8696E-01 -8.8696E-01 -8.6538E-01 -8.6538E-01 -1.5769E-01 -1.5769E-01
 -1.3044E-01 -1.3044E-01 -8.2617E-02 -8.2617E-02 -2.9223E-02 -2.9223E-02
  5.1614E-03  5.1614E-03  4.3890E-02  4.3890E-02  3.4547E-01
 non-scf iterations; kpt #     5  , k= (  0.25000  0.25000  0.25000  ), band residuals:
 res:  2.08E-08  5.25E-09  8.49E-09  7.11E-09  4.02E-09  8.66E-09  1.08E-08  3.43E-08
 res:  9.82E-09  8.03E-09  8.52E-09  5.31E-09  8.70E-09  8.61E-09  5.44E-09  2.58E-09
 res:  1.57E-06
 ene: -8.94E-01 -8.78E-01 -8.67E-01 -8.65E-01 -1.81E-01 -1.52E-01 -1.32E-01 -1.10E-01
 ene: -8.55E-02 -4.98E-02 -4.56E-02 -2.50E-02 -1.40E-02  2.42E-02  4.22E-02  6.17E-02
 ene:  2.98E-01
 vtowfk : number of one-way 3D ffts skipped in vtowfk until now =37
     eigenvalues (hartree) for   17  bands
              after    2 non-SCF iterations with    4 CG line minimizations
 -8.9424E-01 -8.7789E-01 -8.6671E-01 -8.6544E-01 -1.8118E-01 -1.5180E-01
 -1.3191E-01 -1.1037E-01 -8.5501E-02 -4.9797E-02 -4.5563E-02 -2.4989E-02
 -1.4000E-02  2.4177E-02  4.2206E-02  6.1653E-02  2.9777E-01
 non-scf iterations; kpt #     6  , k= (  0.50000  0.50000  0.25000  ), band residuals:
 res:  5.20E-09  5.23E-09  9.63E-09  1.57E-08  5.24E-09  5.23E-09  1.27E-08  2.60E-08
 res:  4.35E-09  4.36E-09  6.98E-09  1.85E-08  9.27E-09  2.09E-08  1.33E-09  1.37E-09
 res:  5.78E-06
 ene: -8.84E-01 -8.84E-01 -8.68E-01 -8.68E-01 -1.74E-01 -1.74E-01 -1.40E-01 -1.40E-01
 ene: -3.17E-02 -3.17E-02 -3.65E-03 -3.65E-03  2.74E-02  2.74E-02  3.47E-02  3.47E-02
 ene:  3.76E-01
 vtowfk : number of one-way 3D ffts skipped in vtowfk until now =38
     eigenvalues (hartree) for   17  bands
              after    2 non-SCF iterations with    4 CG line minimizations
 -8.8430E-01 -8.8430E-01 -8.6792E-01 -8.6792E-01 -1.7395E-01 -1.7395E-01
 -1.3962E-01 -1.3962E-01 -3.1703E-02 -3.1703E-02 -3.6517E-03 -3.6517E-03
  2.7396E-02  2.7396E-02  3.4724E-02  3.4724E-02  3.7561E-01
 non-scf iterations; kpt #     7  , k= (  0.00000  0.25000  0.50000  ), band residuals:
 res:  1.26E-08  4.56E-09  6.61E-09  6.14E-09  5.46E-09  1.82E-08  5.94E-09  8.97E-09
 res:  8.22E-09  1.47E-08  9.91E-09  8.66E-09  7.27E-09  1.10E-08  3.20E-09  4.42E-09
 res:  8.79E-06
 ene: -8.77E-01 -8.77E-01 -8.67E-01 -8.67E-01 -1.58E-01 -1.58E-01 -1.31E-01 -1.31E-01
 ene: -8.94E-02 -8.94E-02 -2.41E-02 -2.41E-02 -8.54E-03 -8.53E-03  1.74E-02  1.74E-02
 ene:  3.87E-01
 vtowfk : number of one-way 3D ffts skipped in vtowfk until now =39
     eigenvalues (hartree) for   17  bands
              after    2 non-SCF iterations with    4 CG line minimizations
 -8.7651E-01 -8.7651E-01 -8.6747E-01 -8.6747E-01 -1.5847E-01 -1.5847E-01
 -1.3073E-01 -1.3072E-01 -8.9374E-02 -8.9373E-02 -2.4070E-02 -2.4069E-02
 -8.5360E-03 -8.5325E-03  1.7376E-02  1.7377E-02  3.8682E-01
 non-scf iterations; kpt #     8  , k= (  0.25000  0.50000  0.50000  ), band residuals:
 res:  4.97E-09  6.66E-09  8.21E-09  1.09E-08  6.45E-09  6.35E-09  6.67E-09  6.61E-09
 res:  9.64E-09  1.32E-08  5.93E-09  5.71E-09  1.37E-08  4.79E-09  5.89E-09  3.70E-09
 res:  1.76E-05
 ene: -8.75E-01 -8.75E-01 -8.69E-01 -8.69E-01 -1.82E-01 -1.82E-01 -1.44E-01 -1.44E-01
 ene: -6.53E-02 -6.53E-02 -2.42E-02 -2.42E-02  2.37E-02  2.37E-02  4.49E-02  4.49E-02
 ene:  3.54E-01
 vtowfk : number of one-way 3D ffts skipped in vtowfk until now =40
     eigenvalues (hartree) for   17  bands
              after    2 non-SCF iterations with    4 CG line minimizations
 -8.7507E-01 -8.7507E-01 -8.6883E-01 -8.6883E-01 -1.8169E-01 -1.8169E-01
 -1.4394E-01 -1.4394E-01 -6.5326E-02 -6.5326E-02 -2.4187E-02 -2.4187E-02
  2.3680E-02  2.3680E-02  4.4944E-02  4.4944E-02  3.5397E-01
 Total charge density [el/Bohr^3]
      Maximum=    5.6832E-01  at reduced coord.    0.6333    0.6667    0.0556
      Minimum=    5.6067E-04  at reduced coord.    0.0000    0.0000    0.0000
   Integrated=    3.2000E+01
 ETOT  5  -68.471927519299    -3.956E-06 1.762E-05 9.895E-05
 scprqt: <Vxc>= -4.3982723E-01 hartree

 Pulay update with  4 previous iterations:
 mixing of old trial potential : alpha(m:m-4)=   1.08     -0.746E-01 -0.937E-02  0.962E-03  0.323E-03
 scfcv: previous iteration took 00 [s]

 ITER STEP NUMBER     6
 vtorho : nnsclo_now=1, note that nnsclo,dbl_nnsclo,istep=0 0 6
 non-scf iterations; kpt #     1  , k= (  0.00000  0.25000  0.00000  ), band residuals:
 res:  1.83E-09  9.31E-10  7.17E-10  6.00E-10  7.16E-10  6.26E-10  1.13E-10  2.46E-10
 res:  1.69E-10  4.00E-10  1.78E-10  1.77E-10  1.05E-09  1.88E-10  1.47E-10  3.71E-10
 res:  3.04E-09
 ene: -9.10E-01 -8.81E-01 -8.65E-01 -8.64E-01 -2.10E-01 -1.42E-01 -1.31E-01 -6.18E-02
 ene: -5.60E-02 -5.43E-02 -4.16E-02 -2.47E-02  9.05E-04  3.12E-02  6.71E-02  6.72E-02
 ene:  2.14E-01
 vtowfk : number of one-way 3D ffts skipped in vtowfk until now =41
     eigenvalues (hartree) for   17  bands
              after    2 non-SCF iterations with    4 CG line minimizations
 -9.1036E-01 -8.8058E-01 -8.6480E-01 -8.6392E-01 -2.1002E-01 -1.4154E-01
 -1.3071E-01 -6.1766E-02 -5.6013E-02 -5.4256E-02 -4.1555E-02 -2.4714E-02
  9.0515E-04  3.1226E-02  6.7124E-02  6.7151E-02  2.1447E-01
 non-scf iterations; kpt #     2  , k= (  0.25000  0.50000  0.00000  ), band residuals:
 res:  1.07E-09  1.36E-09  7.23E-10  8.04E-10  6.75E-10  7.08E-10  3.59E-10  5.71E-10
 res:  1.77E-10  1.77E-10  4.03E-10  4.04E-10  1.78E-10  1.78E-10  3.45E-10  3.68E-10
 res:  5.11E-07
 ene: -8.95E-01 -8.95E-01 -8.66E-01 -8.66E-01 -1.73E-01 -1.73E-01 -9.22E-02 -9.22E-02
 ene: -4.49E-02 -4.49E-02 -5.47E-03 -5.47E-03 -1.39E-03 -1.39E-03  4.86E-02  4.86E-02
 ene:  3.07E-01
 vtowfk : number of one-way 3D ffts skipped in vtowfk until now =42
     eigenvalues (hartree) for   17  bands
              after    2 non-SCF iterations with    4 CG line minimizations
 -8.9466E-01 -8.9466E-01 -8.6572E-01 -8.6572E-01 -1.7294E-01 -1.7294E-01
 -9.2202E-02 -9.2202E-02 -4.4943E-02 -4.4943E-02 -5.4669E-03 -5.4669E-03
 -1.3880E-03 -1.3880E-03  4.8604E-02  4.8604E-02  3.0688E-01
 non-scf iterations; kpt #     3  , k= (  0.00000  0.00000  0.25000  ), band residuals:
 res:  1.77E-09  8.55E-10  6.56E-10  6.53E-10  6.75E-10  7.26E-10  8.60E-11  1.74E-10
 res:  1.57E-10  1.57E-10  8.71E-10  2.44E-10  2.44E-10  5.69E-11  3.96E-10  3.96E-10
 res:  2.04E-09
 ene: -9.02E-01 -8.70E-01 -8.66E-01 -8.66E-01 -1.92E-01 -1.15E-01 -1.08E-01 -1.04E-01
 ene: -9.67E-02 -9.67E-02 -7.24E-02 -3.44E-02 -3.44E-02  4.74E-02  4.83E-02  4.83E-02
 ene:  2.59E-01
 vtowfk : number of one-way 3D ffts skipped in vtowfk until now =43
     eigenvalues (hartree) for   17  bands
              after    2 non-SCF iterations with    4 CG line minimizations
 -9.0206E-01 -8.7013E-01 -8.6558E-01 -8.6558E-01 -1.9195E-01 -1.1538E-01
 -1.0830E-01 -1.0414E-01 -9.6693E-02 -9.6693E-02 -7.2395E-02 -3.4370E-02
 -3.4370E-02  4.7368E-02  4.8308E-02  4.8308E-02  2.5945E-01
 non-scf iterations; kpt #     4  , k= (  0.00000  0.50000  0.25000  ), band residuals:
 res:  1.13E-09  1.27E-09  7.06E-10  6.55E-10  6.15E-10  6.07E-10  3.37E-10  6.02E-10
 res:  4.41E-10  2.26E-10  5.17E-10  5.18E-10  3.97E-10  3.69E-10  1.33E-10  1.33E-10
 res:  2.43E-07
 ene: -8.87E-01 -8.87E-01 -8.65E-01 -8.65E-01 -1.58E-01 -1.58E-01 -1.30E-01 -1.30E-01
 ene: -8.26E-02 -8.26E-02 -2.92E-02 -2.92E-02  5.16E-03  5.16E-03  4.39E-02  4.39E-02
 ene:  3.45E-01
 vtowfk : number of one-way 3D ffts skipped in vtowfk until now =44
     eigenvalues (hartree) for   17  bands
              after    2 non-SCF iterations with    4 CG line minimizations
 -8.8699E-01 -8.8699E-01 -8.6541E-01 -8.6541E-01 -1.5768E-01 -1.5768E-01
 -1.3042E-01 -1.3042E-01 -8.2607E-02 -8.2607E-02 -2.9219E-02 -2.9219E-02
  5.1615E-03  5.1615E-03  4.3893E-02  4.3893E-02  3.4549E-01
 non-scf iterations; kpt #     5  , k= (  0.25000  0.25000  0.25000  ), band residuals:
 res:  1.57E-09  8.87E-10  6.77E-10  7.14E-10  6.65E-10  4.26E-10  2.01E-10  7.76E-10
 res:  3.32E-10  3.21E-10  2.78E-10  2.89E-10  4.72E-10  3.25E-10  3.34E-10  5.32E-11
 res:  6.63E-08
 ene: -8.94E-01 -8.78E-01 -8.67E-01 -8.65E-01 -1.81E-01 -1.52E-01 -1.32E-01 -1.10E-01
 ene: -8.55E-02 -4.98E-02 -4.55E-02 -2.50E-02 -1.40E-02  2.42E-02  4.22E-02  6.17E-02
 ene:  2.98E-01
 vtowfk : number of one-way 3D ffts skipped in vtowfk until now =45
     eigenvalues (hartree) for   17  bands
              after    2 non-SCF iterations with    4 CG line minimizations
 -8.9426E-01 -8.7792E-01 -8.6674E-01 -8.6547E-01 -1.8117E-01 -1.5179E-01
 -1.3189E-01 -1.1036E-01 -8.5494E-02 -4.9796E-02 -4.5549E-02 -2.4986E-02
 -1.4001E-02  2.4176E-02  4.2206E-02  6.1655E-02  2.9780E-01
 non-scf iterations; kpt #     6  , k= (  0.50000  0.50000  0.25000  ), band residuals:
 res:  8.59E-10  8.59E-10  7.95E-10  1.07E-09  5.90E-10  5.90E-10  2.10E-10  4.90E-10
 res:  3.15E-10  3.15E-10  5.24E-10  2.93E-10  6.74E-10  6.08E-10  3.85E-11  3.86E-11
 res:  1.41E-06
 ene: -8.84E-01 -8.84E-01 -8.68E-01 -8.68E-01 -1.74E-01 -1.74E-01 -1.40E-01 -1.40E-01
 ene: -3.17E-02 -3.17E-02 -3.65E-03 -3.65E-03  2.74E-02  2.74E-02  3.47E-02  3.47E-02
 ene:  3.76E-01
 vtowfk : number of one-way 3D ffts skipped in vtowfk until now =46
     eigenvalues (hartree) for   17  bands
              after    2 non-SCF iterations with    4 CG line minimizations
 -8.8432E-01 -8.8432E-01 -8.6795E-01 -8.6795E-01 -1.7394E-01 -1.7394E-01
 -1.3960E-01 -1.3960E-01 -3.1702E-02 -3.1702E-02 -3.6491E-03 -3.6491E-03
  2.7396E-02  2.7396E-02  3.4730E-02  3.4730E-02  3.7566E-01
 non-scf iterations; kpt #     7  , k= (  0.00000  0.25000  0.50000  ), band residuals:
 res:  1.15E-09  1.02E-09  6.09E-10  6.65E-10  3.18E-10  9.90E-11  9.08E-10  5.51E-10
 res:  1.55E-10  3.37E-10  5.00E-10  4.61E-10  2.85E-10  2.40E-10  1.45E-10  1.72E-10
 res:  9.16E-06
 ene: -8.77E-01 -8.77E-01 -8.67E-01 -8.67E-01 -1.58E-01 -1.58E-01 -1.31E-01 -1.31E-01
 ene: -8.94E-02 -8.94E-02 -2.41E-02 -2.41E-02 -8.53E-03 -8.52E-03  1.74E-02  1.74E-02
 ene:  3.87E-01
 vtowfk : number of one-way 3D ffts skipped in vtowfk until now =47
     eigenvalues (hartree) for   17  bands
              after    2 non-SCF iterations with    4 CG line minimizations
 -8.7654E-01 -8.7654E-01 -8.6750E-01 -8.6750E-01 -1.5846E-01 -1.5846E-01
 -1.3072E-01 -1.3072E-01 -8.9363E-02 -8.9360E-02 -2.4067E-02 -2.4065E-02
 -8.5264E-03 -8.5215E-03  1.7381E-02  1.7383E-02  3.8684E-01
 non-scf iterations; kpt #     8  , k= (  0.25000  0.50000  0.50000  ), band residuals:
 res:  8.69E-10  9.13E-10  6.93E-10  8.88E-10  3.09E-10  3.15E-10  3.37E-10  3.36E-10
 res:  4.98E-10  4.54E-10  4.95E-10  4.91E-10  2.25E-10  2.36E-10  1.40E-10  1.68E-10
 res:  7.94E-06
 ene: -8.75E-01 -8.75E-01 -8.69E-01 -8.69E-01 -1.82E-01 -1.82E-01 -1.44E-01 -1.44E-01
 ene: -6.53E-02 -6.53E-02 -2.42E-02 -2.42E-02  2.37E-02  2.37E-02  4.49E-02  4.49E-02
 ene:  3.54E-01
 vtowfk : number of one-way 3D ffts skipped in vtowfk until now =48
     eigenvalues (hartree) for   17  bands
              after    2 non-SCF iterations with    4 CG line minimizations
 -8.7510E-01 -8.7510E-01 -8.6885E-01 -8.6885E-01 -1.8168E-01 -1.8168E-01
 -1.4393E-01 -1.4393E-01 -6.5320E-02 -6.5320E-02 -2.4188E-02 -2.4188E-02
  2.3684E-02  2.3684E-02  4.4948E-02  4.4948E-02  3.5399E-01
 Total charge density [el/Bohr^3]
      Maximum=    5.6834E-01  at reduced coord.    0.1667    0.8667    0.5556
      Minimum=    5.6061E-04  at reduced coord.    0.0000    0.0000    0.0000
   Integrated=    3.2000E+01
 ETOT  6  -68.471927602848    -8.355E-08 9.159E-06 1.393E-06
 scprqt: <Vxc>= -4.3982060E-01 hartree

 At SCF step    6, etot is converged : 
  for the second time, diff in etot=  8.355E-08 < toldfe=  1.000E-04

 Cartesian components of stress tensor (hartree/bohr^3)
  sigma(1 1)= -2.92750030E-03  sigma(3 2)=  0.00000000E+00
  sigma(2 2)= -2.92750030E-03  sigma(3 1)=  0.00000000E+00
  sigma(3 3)= -5.92964332E-03  sigma(2 1)=  0.00000000E+00

 fftdatar_write: About to write data to: RutileDOS_o_TIM1_DEN with iomode IO_MODE_FORTRAN
 IO operation completed. cpu_time:       0.0 [s], walltime:       0.0 [s]
 tetrahedron : integrate to  3.40000000E+01
 tetrahedron: cpu_time:     0.06[s], walltime:     0.06 [s]

---OUTPUT-----------------------------------------------------------------------

 Cartesian coordinates (xcart) [bohr]
  0.00000000000000E+00  0.00000000000000E+00  0.00000000000000E+00
  4.34040000000000E+00  4.34040000000000E+00  2.79560000000000E+00
  2.69100000000000E+00  2.69100000000000E+00  0.00000000000000E+00
  5.98980000000000E+00  5.98980000000000E+00  0.00000000000000E+00
  1.64940000000000E+00  7.03140000000000E+00  2.79560000000000E+00
  7.03140000000000E+00  1.64940000000000E+00  2.79560000000000E+00
 Reduced coordinates (xred)
  0.00000000000000E+00  0.00000000000000E+00  0.00000000000000E+00
  5.00000000000000E-01  5.00000000000000E-01  5.00008942784067E-01
  3.09994470555709E-01  3.09994470555709E-01  0.00000000000000E+00
  6.90005529444291E-01  6.90005529444291E-01  0.00000000000000E+00
  1.90005529444291E-01  8.09994470555709E-01  5.00008942784067E-01
  8.09994470555709E-01  1.90005529444291E-01  5.00008942784067E-01
 Cartesian forces (fcart) [Ha/bohr]; max,rms= 6.95396E-02 4.63598E-02 (free atoms)
 -0.00000000000000E+00 -0.00000000000000E+00  4.45708707461799E-05
 -0.00000000000000E+00 -0.00000000000000E+00 -4.45708707461799E-05
 -6.95396408255211E-02 -6.95396408255211E-02  1.62894744525147E-05
  6.95396408255211E-02  6.95396408255211E-02  1.62894744525147E-05
  6.95396408255211E-02 -6.95396408255211E-02 -1.62894744525147E-05
 -6.95396408255211E-02  6.95396408255211E-02 -1.62894744525147E-05
 Reduced forces (fred)
 -0.00000000000000E+00 -0.00000000000000E+00 -2.49200195428966E-04
  0.00000000000000E+00  0.00000000000000E+00  2.49200195428966E-04
  6.03659714078184E-01  6.03659714078184E-01 -9.10760806114548E-05
 -6.03659714078184E-01 -6.03659714078184E-01 -9.10760806114548E-05
 -6.03659714078184E-01  6.03659714078184E-01  9.10760806114548E-05
  6.03659714078184E-01 -6.03659714078184E-01  9.10760806114548E-05
 Scale of Primitive Cell (acell) [bohr]
  8.68080000000000E+00  8.68080000000000E+00  5.59110000000000E+00
 Real space primitive translations (rprimd) [bohr]
  8.68080000000000E+00  0.00000000000000E+00  0.00000000000000E+00
  0.00000000000000E+00  8.68080000000000E+00  0.00000000000000E+00
  0.00000000000000E+00  0.00000000000000E+00  5.59110000000000E+00
 Unitary Cell Volume (ucvol) [Bohr^3]=  4.21324545415104E+02
 Angles (23,13,12)= [degrees]
  9.00000000000000E+01  9.00000000000000E+01  9.00000000000000E+01
 Lengths [Bohr]
  8.68080000000000E+00  8.68080000000000E+00  5.59110000000000E+00
 Stress tensor in cartesian coordinates (strten) [Ha/bohr^3]
 -2.92750030373404E-03  0.00000000000000E+00  0.00000000000000E+00
  0.00000000000000E+00 -2.92750030373404E-03  0.00000000000000E+00
  0.00000000000000E+00  0.00000000000000E+00 -5.92964332414332E-03
 Total energy (etotal) [Ha]= -6.84719276028481E+01
 fconv : at Broyd/MD step   1, gradients have not converged yet. 
  max grad (force/stress) = 3.9282E-01 > tolmxf= 5.0000E-05 ha/bohr (free atoms)

 Geometry Optimization Precondition:           0
Inverse hessian has been initialized.
 EXIT:           1           1
 mover: previous time step took 03 [s]

--- Iteration: ( 2/10) Internal Cycle: (1/1)
--------------------------------------------------------------------------------

 Cartesian coordinates (xcart) [bohr]
  0.00000000000000E+00  0.00000000000000E+00  4.98233891608359E-05
  4.85190068520766E+00  4.85190068520766E+00  3.12500168236297E+00
  2.93039012831153E+00  2.93039012831153E+00  1.82091310150743E-05
  6.77341124210379E+00  6.77341124210379E+00  1.82091310150743E-05
  1.92151055689613E+00  7.78229081351919E+00  3.12503329662111E+00
  7.78229081351919E+00  1.92151055689613E+00  3.12503329662111E+00
 Reduced coordinates (xred)
  0.00000000000000E+00  0.00000000000000E+00  7.97175345570279E-06
  5.00000000000000E-01  5.00000000000000E-01  5.00000971030612E-01
  3.01983729515077E-01  3.01983729515077E-01  2.91346505204963E-06
  6.98016270484923E-01  6.98016270484923E-01  2.91346505204963E-06
  1.98016270484923E-01  8.01983729515077E-01  5.00006029319015E-01
  8.01983729515077E-01  1.98016270484923E-01  5.00006029319015E-01
 Scale of Primitive Cell (acell) [bohr]
  9.70380137041532E+00  9.70380137041532E+00  6.24999122686032E+00
 Real space primitive translations (rprimd) [bohr]
  9.70380137041532E+00  0.00000000000000E+00  0.00000000000000E+00
  0.00000000000000E+00  9.70380137041532E+00  0.00000000000000E+00
  0.00000000000000E+00  0.00000000000000E+00  6.24999122686032E+00
 Unitary Cell Volume (ucvol) [Bohr^3]=  5.88522680366136E+02
 Angles (23,13,12)= [degrees]
  9.00000000000000E+01  9.00000000000000E+01  9.00000000000000E+01
 Lengths [Bohr]
  9.70380137041532E+00  9.70380137041532E+00  6.24999122686032E+00

---SELF-CONSISTENT-FIELD CONVERGENCE--------------------------------------------

 getcut: wavevector=  0.0000  0.0000  0.0000  ngfft=  30  30  18
         ecut(hartree)=      8.000   => boxcut(ratio)=   2.26195

 getcut : COMMENT -
  Note that boxcut > 2.2 ; recall that boxcut=Gcut(box)/Gcut(sphere) = 2
  is sufficient for exact treatment of convolution.
  Such a large boxcut is a waste : you could raise ecut
  e.g. ecut=   10.232835 Hartrees makes boxcut=2


 ITER STEP NUMBER     1
 vtorho : nnsclo_now=2, note that nnsclo,dbl_nnsclo,istep=0 0 1
 non-scf iterations; kpt #     1  , k= (  0.00000  0.25000  0.00000  ), band residuals:
 res:  1.18E-02  8.97E-03  1.01E-02  8.21E-03  6.21E-03  1.00E-02  1.22E-03  5.26E-03
 res:  1.62E-03  1.11E-02  1.19E-03  2.51E-03  1.62E-02  7.19E-04  9.79E-03  6.03E-03
 res:  1.45E-02
 ene: -6.93E-01 -6.63E-01 -6.53E-01 -6.46E-01 -1.65E-01 -1.31E-01 -7.79E-02 -5.77E-02
 ene: -3.35E-02  3.36E-02  4.70E-02  6.93E-02  8.78E-02  1.01E-01  1.40E-01  1.61E-01
 ene:  1.62E-01
 res:  2.13E-05  1.35E-05  2.76E-05  1.14E-05  5.34E-06  5.31E-06  2.04E-05  7.63E-05
 res:  2.95E-05  4.06E-06  4.89E-05  2.34E-06  4.67E-06  7.22E-05  7.78E-06  1.98E-02
 res:  1.66E-04
 ene: -6.93E-01 -6.64E-01 -6.54E-01 -6.47E-01 -1.65E-01 -1.31E-01 -7.83E-02 -5.91E-02
 ene: -3.38E-02  3.35E-02  4.58E-02  6.92E-02  8.76E-02  9.97E-02  1.33E-01  1.40E-01
 ene:  1.60E-01
 vtowfk : number of one-way 3D ffts skipped in vtowfk until now =49
     eigenvalues (hartree) for   17  bands
              after    3 non-SCF iterations with    4 CG line minimizations
 -6.9321E-01 -6.6367E-01 -6.5407E-01 -6.4714E-01 -1.6509E-01 -1.3065E-01
 -7.8255E-02 -5.9118E-02 -3.3758E-02  3.3517E-02  4.5831E-02  6.9199E-02
  8.7620E-02  9.9733E-02  1.3350E-01  1.3962E-01  1.5975E-01
[...]
 ene: -1.13E-01 -1.13E-01 -7.70E-02 -7.70E-02 -3.42E-02 -3.42E-02 -1.81E-02 -1.81E-02
 ene:  1.80E-01
 vtowfk : number of one-way 3D ffts skipped in vtowfk until now =344
     eigenvalues (hartree) for   17  bands
              after    2 non-SCF iterations with    4 CG line minimizations
 -9.1919E-01 -9.1919E-01 -9.1615E-01 -9.1615E-01 -2.0909E-01 -2.0909E-01
 -1.6282E-01 -1.6282E-01 -1.1290E-01 -1.1290E-01 -7.6965E-02 -7.6965E-02
 -3.4176E-02 -3.4176E-02 -1.8086E-02 -1.8086E-02  1.7959E-01
 Total charge density [el/Bohr^3]
      Maximum=    5.4423E-01  at reduced coord.    0.6667    0.7333    0.0000
      Minimum=    1.3580E-03  at reduced coord.    0.5000    0.5000    0.5000
   Integrated=    3.2000E+01
 ETOT  3  -68.828546810532    -4.878E-08 4.132E-10 6.863E-08
 scprqt: <Vxc>= -3.8008333E-01 hartree

 At SCF step    3, etot is converged : 
  for the second time, diff in etot=  4.878E-08 < toldfe=  1.000E-04

 Cartesian components of stress tensor (hartree/bohr^3)
  sigma(1 1)=  2.52720552E-04  sigma(3 2)=  0.00000000E+00
  sigma(2 2)=  2.52720552E-04  sigma(3 1)=  0.00000000E+00
  sigma(3 3)= -5.04897020E-04  sigma(2 1)=  0.00000000E+00

 fftdatar_write: About to write data to: RutileDOS_o_TIM9_DEN with iomode IO_MODE_FORTRAN
 IO operation completed. cpu_time:       0.0 [s], walltime:       0.0 [s]
 tetrahedron : integrate to  3.40000000E+01
 tetrahedron: cpu_time:     0.06[s], walltime:     0.07 [s]

---OUTPUT-----------------------------------------------------------------------

 Cartesian coordinates (xcart) [bohr]
 -1.04076508664623E-18 -1.70156840884126E-20  3.64579774637215E-05
  4.92999903859943E+00  4.92999903859943E+00  3.17531726801752E+00
  2.96065184281280E+00  2.96065184281280E+00  2.78329359159576E-05
  6.89934623438608E+00  6.89934623438608E+00  2.78329359159576E-05
  1.96934719578664E+00  7.89065088141222E+00  3.17532589305905E+00
  7.89065088141222E+00  1.96934719578664E+00  3.17532589305905E+00
 Reduced coordinates (xred)
 -1.05554289006708E-19 -1.72572894590732E-21  5.74087687253448E-06
  5.00000000000000E-01  5.00000000000000E-01  5.00003201907196E-01
  3.00269008130871E-01  3.00269008130871E-01  4.38272963039856E-06
  6.99730991869130E-01  6.99730991869130E-01  4.38272963039856E-06
  1.99730991869129E-01  8.00269008130870E-01  5.00004560054436E-01
  8.00269008130870E-01  1.99730991869129E-01  5.00004560054436E-01
 Cartesian forces (fcart) [Ha/bohr]; max,rms= 4.97727E-06 3.33175E-06 (free atoms)
 -2.82344315911446E-22 -3.20024770408523E-31 -8.98656402362587E-07
 -2.82344316071458E-22 -3.20024770408523E-31  8.98656402362587E-07
  4.97727039825970E-06  4.97727039825970E-06  4.67837144749447E-08
 -4.97727039825970E-06 -4.97727039825970E-06  4.67837144749447E-08
 -4.97727039825970E-06  4.97727039825970E-06 -4.67837144749448E-08
  4.97727039825970E-06 -4.97727039825970E-06 -4.67837144749448E-08
 Reduced forces (fred)
  2.78391441199489E-21  3.15544362088405E-30  5.70700183829233E-06
  2.78391441357261E-21  3.15544362088405E-30 -5.70700183829233E-06
 -4.90758765565395E-05 -4.90758765565395E-05 -2.97104370267343E-07
  4.90758765565395E-05  4.90758765565395E-05 -2.97104370267343E-07
  4.90758765565395E-05 -4.90758765565395E-05  2.97104370267344E-07
 -4.90758765565395E-05  4.90758765565395E-05  2.97104370267344E-07
 Scale of Primitive Cell (acell) [bohr]
  9.85999807719887E+00  9.85999807719887E+00  6.35059386801062E+00
 Real space primitive translations (rprimd) [bohr]
  9.85999807719887E+00  0.00000000000000E+00  0.00000000000000E+00
  0.00000000000000E+00  9.85999807719887E+00  0.00000000000000E+00
  0.00000000000000E+00  0.00000000000000E+00  6.35059386801062E+00
 Unitary Cell Volume (ucvol) [Bohr^3]=  6.17401954810947E+02
 Angles (23,13,12)= [degrees]
  9.00000000000000E+01  9.00000000000000E+01  9.00000000000000E+01
 Lengths [Bohr]
  9.85999807719887E+00  9.85999807719887E+00  6.35059386801062E+00
 Stress tensor in cartesian coordinates (strten) [Ha/bohr^3]
  2.52720551554569E-04  0.00000000000000E+00  0.00000000000000E+00
  0.00000000000000E+00  2.52720551554569E-04  0.00000000000000E+00
  0.00000000000000E+00  0.00000000000000E+00 -5.04897019831353E-04
 Total energy (etotal) [Ha]= -6.88285468105323E+01

 Difference of energy with previous step (new-old):
           Absolute (Ha)=-1.80956E-08
           Relative     =-2.62909E-10

 At Broyd/MD step   9, gradients are converged : 
  max grad (force/stress) = 1.8136E-05 < tolmxf= 5.0000E-05 ha/bohr (free atoms)

 Geometry Optimization Precondition:           0
================================================================================

 ----iterations are completed or convergence reached----


 === Gap info ===
  >>>> For spin  1
   Minimum optical gap =   1.2989 [eV], located at k-point      :   0.0000  0.2500  0.0000
   Fundamental gap     =   1.2989 [eV], Top of valence bands at :   0.0000  0.2500  0.0000
                                        Bottom of conduction at :   0.0000  0.2500  0.0000
 Mean square residual over all n,k,spin=   6.7161E-11; max=  4.1325E-10
   0.0000  0.2500  0.0000    1  3.89946E-10 kpt; spin; max resid(k); each band:
  3.65E-10 4.18E-11 1.32E-11 6.14E-12 3.20E-11 7.65E-11 3.21E-11 1.65E-11
  5.45E-11 2.51E-12 2.38E-10 1.29E-11 1.22E-11 1.13E-11 2.35E-11 6.54E-11
  3.90E-10
   0.2500  0.5000  0.0000    1  3.72452E-10 kpt; spin; max resid(k); each band:
  9.28E-11 2.86E-10 2.68E-11 2.92E-11 9.77E-11 8.06E-11 1.11E-10 6.47E-11
  3.55E-11 3.39E-11 6.61E-12 6.61E-12 1.54E-11 1.54E-11 4.61E-11 4.69E-11
  3.72E-10
   0.0000  0.0000  0.2500    1  4.13248E-10 kpt; spin; max resid(k); each band:
  3.44E-10 7.06E-12 7.06E-12 1.50E-11 1.29E-11 1.64E-11 2.19E-10 7.82E-11
  1.63E-11 1.63E-11 1.01E-11 9.25E-12 9.25E-12 1.78E-11 1.78E-11 3.32E-12
  4.13E-10
   0.0000  0.5000  0.2500    1  3.87347E-10 kpt; spin; max resid(k); each band:
  2.02E-10 1.50E-10 6.05E-12 6.05E-12 1.06E-10 7.73E-11 3.30E-11 3.80E-11
  3.99E-11 3.07E-11 1.61E-11 1.62E-11 2.23E-11 2.08E-11 2.81E-11 2.61E-11
  3.87E-10
   0.2500  0.2500  0.2500    1  3.81524E-10 kpt; spin; max resid(k); each band:
  3.10E-10 3.08E-11 1.65E-11 7.66E-12 3.29E-11 9.78E-11 1.13E-10 2.36E-11
  2.15E-11 3.65E-12 1.46E-11 1.61E-11 2.17E-11 3.57E-11 1.70E-11 1.23E-11
  3.82E-10
   0.5000  0.5000  0.2500    1  3.51971E-10 kpt; spin; max resid(k); each band:
  2.30E-10 6.84E-11 2.69E-11 2.69E-11 1.07E-10 5.29E-11 2.72E-11 2.72E-11
  3.93E-12 3.93E-12 2.91E-11 5.98E-11 8.39E-12 8.39E-12 2.28E-11 2.27E-11
  3.52E-10
   0.0000  0.2500  0.5000    1  3.44568E-10 kpt; spin; max resid(k); each band:
  4.66E-11 2.17E-10 6.70E-12 5.01E-12 1.69E-11 3.91E-11 8.81E-11 3.35E-11
  8.83E-12 1.00E-11 2.92E-11 1.73E-11 3.32E-11 2.51E-11 1.79E-11 1.73E-11
  3.45E-10
   0.2500  0.5000  0.5000    1  2.65901E-10 kpt; spin; max resid(k); each band:
  7.45E-11 1.49E-10 8.86E-12 7.75E-12 1.14E-11 1.17E-11 3.04E-11 2.39E-11
  2.51E-11 1.96E-11 1.48E-11 1.48E-11 3.91E-11 3.29E-11 1.78E-11 1.78E-11
  2.66E-10

 outwf: write wavefunction to file RutileDOS_o_WFK, with iomode -1
 outwf with iomode: -1, cpu_time:     0.03[s], walltime:     0.02 [s]
 prteigrs : about to open file RutileDOS_o_EIG
 Fermi (or HOMO) energy (hartree) =   0.00795   Average Vxc (hartree)=  -0.38008
 Eigenvalues (hartree) for nkpt=   8  k points:
 kpt#   1, nband= 17, wtk=  0.12500, kpt=  0.0000  0.2500  0.0000 (reduced coord)
  -0.93159   -0.91999   -0.91606   -0.91452   -0.23292   -0.15865   -0.12952   -0.10800
  -0.08452   -0.07818   -0.06883   -0.06038   -0.04820   -0.02941   -0.01838    0.00795
   0.05568
 kpt#   2, nband= 17, wtk=  0.12500, kpt=  0.2500  0.5000  0.0000 (reduced coord)
  -0.92525   -0.92525   -0.91605   -0.91605   -0.20156   -0.20156   -0.12033   -0.12033
  -0.07496   -0.07496   -0.06633   -0.06633   -0.04350   -0.04350   -0.02222   -0.02222
   0.13904
 kpt#   3, nband= 17, wtk=  0.06250, kpt=  0.0000  0.0000  0.2500 (reduced coord)
  -0.92894   -0.91593   -0.91593   -0.91580   -0.22484   -0.13669   -0.13008   -0.12205
  -0.11641   -0.11641   -0.10589   -0.09473   -0.09473   -0.03017   -0.03017    0.00478
   0.10329
 kpt#   4, nband= 17, wtk=  0.12500, kpt=  0.0000  0.5000  0.2500 (reduced coord)
  -0.92308   -0.92308   -0.91525   -0.91525   -0.18967   -0.18967   -0.15127   -0.15127
  -0.10909   -0.10909   -0.07306   -0.07306   -0.04801   -0.04801   -0.01603   -0.01603
   0.17219
 kpt#   5, nband= 17, wtk=  0.25000, kpt=  0.2500  0.2500  0.2500 (reduced coord)
  -0.92586   -0.91939   -0.91625   -0.91517   -0.21245   -0.17884   -0.14370   -0.13465
  -0.12290   -0.09610   -0.08586   -0.07037   -0.06998   -0.02831   -0.02654   -0.00109
   0.13211
 kpt#   6, nband= 17, wtk=  0.06250, kpt=  0.5000  0.5000  0.2500 (reduced coord)
  -0.92178   -0.92178   -0.91658   -0.91658   -0.20588   -0.20588   -0.14214   -0.14214
  -0.09092   -0.09092   -0.08326   -0.08326   -0.03171   -0.03171   -0.02924   -0.02924
   0.17695
 kpt#   7, nband= 17, wtk=  0.12500, kpt=  0.0000  0.2500  0.5000 (reduced coord)
  -0.91962   -0.91962   -0.91577   -0.91577   -0.18894   -0.18894   -0.16022   -0.16022
  -0.12331   -0.12331   -0.08514   -0.08514   -0.04415   -0.04415   -0.03343   -0.03343
   0.21614
 kpt#   8, nband= 17, wtk=  0.12500, kpt=  0.2500  0.5000  0.5000 (reduced coord)
  -0.91919   -0.91919   -0.91615   -0.91615   -0.20909   -0.20909   -0.16282   -0.16282
  -0.11290   -0.11290   -0.07697   -0.07697   -0.03418   -0.03418   -0.01809   -0.01809
   0.17959
 Total charge density [el/Bohr^3]
      Maximum=    5.4423E-01  at reduced coord.    0.6667    0.7333    0.0000
 Next maximum=    5.4423E-01  at reduced coord.    0.7333    0.6667    0.0000
      Minimum=    1.3580E-03  at reduced coord.    0.5000    0.5000    0.5000
 Next minimum=    1.3580E-03  at reduced coord.    0.0000    0.0000    0.0000
   Integrated=    3.2000E+01

 Cartesian components of stress tensor (hartree/bohr^3)
  sigma(1 1)=  2.52720552E-04  sigma(3 2)=  0.00000000E+00
  sigma(2 2)=  2.52720552E-04  sigma(3 1)=  0.00000000E+00
  sigma(3 3)= -5.04897020E-04  sigma(2 1)=  0.00000000E+00

-Cartesian components of stress tensor (GPa)         [Pressure= -5.3358E-03 GPa]
- sigma(1 1)=  7.43529408E+00  sigma(3 2)=  0.00000000E+00
- sigma(2 2)=  7.43529408E+00  sigma(3 1)=  0.00000000E+00
- sigma(3 3)= -1.48545807E+01  sigma(2 1)=  0.00000000E+00

== END DATASET(S) ==============================================================
================================================================================
  
 -outvars: echo values of variables after computation  --------
            acell      9.8599980772E+00  9.8599980772E+00  6.3505938680E+00 Bohr
              amu      4.78800000E+01  1.59994000E+01
           diemac      1.20000000E+01
          dilatmx      1.20000000E+00
             ecut      8.00000000E+00 Hartree
           ecutsm      5.00000000E-01 Hartree
           etotal     -6.8828546811E+01
            fcart     -2.8234431591E-22 -3.2002477041E-31 -8.9865640236E-07
                      -2.8234431607E-22 -3.2002477041E-31  8.9865640236E-07
                       4.9772703983E-06  4.9772703983E-06  4.6783714475E-08
                      -4.9772703983E-06 -4.9772703983E-06  4.6783714475E-08
                      -4.9772703983E-06  4.9772703983E-06 -4.6783714475E-08
                       4.9772703983E-06 -4.9772703983E-06 -4.6783714475E-08
-          fftalg         112
           getwfk          -1
           ionmov           2
              kpt      0.00000000E+00  2.50000000E-01  0.00000000E+00
                       2.50000000E-01  5.00000000E-01  0.00000000E+00
                       0.00000000E+00  0.00000000E+00  2.50000000E-01
                       0.00000000E+00  5.00000000E-01  2.50000000E-01
                       2.50000000E-01  2.50000000E-01  2.50000000E-01
                       5.00000000E-01  5.00000000E-01  2.50000000E-01
                       0.00000000E+00  2.50000000E-01  5.00000000E-01
                       2.50000000E-01  5.00000000E-01  5.00000000E-01
         kptrlatt        2   -2   -2      2    2   -2      0    0    4
          kptrlen      2.23644000E+01
P           mkmem           8
            natom           6
            nband          17
            ngfft          30      30      18
             nkpt           8
            nstep          10
             nsym           8
            ntime          10
           ntypat           2
              occ      2.000000  2.000000  2.000000  2.000000  2.000000  2.000000
                       2.000000  2.000000  2.000000  2.000000  2.000000  2.000000
                       2.000000  2.000000  2.000000  2.000000  0.000000
          optcell           1
           prtdos           2
           shiftk     -5.00000000E-01 -5.00000000E-01  1.00000000E+00
          spgroup         113
           strten      2.5272055155E-04  2.5272055155E-04 -5.0489701983E-04
                       0.0000000000E+00  0.0000000000E+00  0.0000000000E+00
           symrel      1  0  0   0  1  0   0  0  1      -1  0  0   0  1  0   0  0 -1
                      -1  0  0   0 -1  0   0  0  1       1  0  0   0 -1  0   0  0 -1
                       0  1  0   1  0  0   0  0  1       0 -1  0   1  0  0   0  0 -1
                       0 -1  0  -1  0  0   0  0  1       0  1  0  -1  0  0   0  0 -1
            tnons      0.0000000  0.0000000  0.0000000     0.5000000  0.5000000 -0.4999911
                       0.0000000  0.0000000  0.0000000     0.5000000  0.5000000 -0.4999911
                       0.0000000  0.0000000  0.0000000     0.5000000  0.5000000 -0.4999911
                       0.0000000  0.0000000  0.0000000     0.5000000  0.5000000 -0.4999911
           toldfe      1.00000000E-04 Hartree
            typat      1  1  2  2  2  2
              wtk        0.12500    0.12500    0.06250    0.12500    0.25000    0.06250
                         0.12500    0.12500
           xangst     -5.5074916335E-19 -9.0043122082E-21  1.9292730745E-05
                       2.6088431296E+00  2.6088431296E+00  1.6803055283E+00
                       1.5667094778E+00  1.5667094778E+00  1.4728555335E-05
                       3.6509767814E+00  3.6509767814E+00  1.4728555335E-05
                       1.0421336518E+00  4.1755526074E+00  1.6803100925E+00
                       4.1755526074E+00  1.0421336518E+00  1.6803100925E+00
            xcart     -1.0407650866E-18 -1.7015684088E-20  3.6457977464E-05
                       4.9299990386E+00  4.9299990386E+00  3.1753172680E+00
                       2.9606518428E+00  2.9606518428E+00  2.7832935916E-05
                       6.8993462344E+00  6.8993462344E+00  2.7832935916E-05
                       1.9693471958E+00  7.8906508814E+00  3.1753258931E+00
                       7.8906508814E+00  1.9693471958E+00  3.1753258931E+00
             xred     -1.0555428901E-19 -1.7257289459E-21  5.7408768725E-06
                       5.0000000000E-01  5.0000000000E-01  5.0000320191E-01
                       3.0026900813E-01  3.0026900813E-01  4.3827296304E-06
                       6.9973099187E-01  6.9973099187E-01  4.3827296304E-06
                       1.9973099187E-01  8.0026900813E-01  5.0000456005E-01
                       8.0026900813E-01  1.9973099187E-01  5.0000456005E-01
            znucl       22.00000    8.00000

================================================================================
  

================================================================================

 Suggested references for the acknowledgment of ABINIT usage.

 The users of ABINIT have little formal obligations with respect to the ABINIT group
 (those specified in the GNU General Public License, http://www.gnu.org/copyleft/gpl.txt).
 However, it is common practice in the scientific literature,
 to acknowledge the efforts of people that have made the research possible.
 In this spirit, please find below suggested citations of work written by ABINIT developers,
 corresponding to implementations inside of ABINIT that you have used in the present run.
 Note also that it will be of great value to readers of publications presenting these results,
 to read papers enabling them to understand the theoretical formalism and details
 of the ABINIT implementation.
 For information on why they are suggested, see also https://www.abinit.org/about/?text=acknowledgments.
-
- [1] Recent developments in the ABINIT software package.
- Computer Phys. Comm. 205, 106 (2016).
- X.Gonze, F.Jollet, F.Abreu Araujo, D.Adams, B.Amadon, T.Applencourt,
- C.Audouze, J.-M.Beuken, J.Bieder, A.Bokhanchuk, E.Bousquet, F.Bruneval
- D.Caliste, M.Cote, F.Dahm, F.Da Pieve, M.Delaveau, M.Di Gennaro,
- B.Dorado, C.Espejo, G.Geneste, L.Genovese, A.Gerossier, M.Giantomassi,
- Y.Gillet, D.R.Hamann, L.He, G.Jomard, J.Laflamme Janssen, S.Le Roux,
- A.Levitt, A.Lherbier, F.Liu, I.Lukacevic, A.Martin, C.Martins,
- M.J.T.Oliveira, S.Ponce, Y.Pouillon, T.Rangel, G.-M.Rignanese,
- A.H.Romero, B.Rousseau, O.Rubel, A.A.Shukri, M.Stankovski, M.Torrent,
- M.J.Van Setten, B.Van Troeye, M.J.Verstraete, D.Waroquier, J.Wiktor,
- B.Xue, A.Zhou, J.W.Zwanziger.
- Comment : the fourth generic paper describing the ABINIT project.
- Note that a version of this paper, that is not formatted for Computer Phys. Comm. 
- is available at https://www.abinit.org/about/ABINIT16.pdf .
- The licence allows the authors to put it on the Web.
-
- [2] ABINIT : First-principles approach of materials and nanosystem properties.
- Computer Phys. Comm. 180, 2582-2615 (2009).
- X. Gonze, B. Amadon, P.-M. Anglade, J.-M. Beuken, F. Bottin, P. Boulanger, F. Bruneval,
- D. Caliste, R. Caracas, M. Cote, T. Deutsch, L. Genovese, Ph. Ghosez, M. Giantomassi
- S. Goedecker, D.R. Hamann, P. Hermet, F. Jollet, G. Jomard, S. Leroux, M. Mancini, S. Mazevet,
- M.J.T. Oliveira, G. Onida, Y. Pouillon, T. Rangel, G.-M. Rignanese, D. Sangalli, R. Shaltaf,
- M. Torrent, M.J. Verstraete, G. Zerah, J.W. Zwanziger
- Comment : the third generic paper describing the ABINIT project.
- Note that a version of this paper, that is not formatted for Computer Phys. Comm. 
- is available at https://www.abinit.org/about/ABINIT_CPC_v10.pdf .
- The licence allows the authors to put it on the Web.
-
- [3] A brief introduction to the ABINIT software package.
- Z. Kristallogr. 220, 558-562 (2005).
- X. Gonze, G.-M. Rignanese, M. Verstraete, J.-M. Beuken, Y. Pouillon, R. Caracas, F. Jollet,
- M. Torrent, G. Zerah, M. Mikami, Ph. Ghosez, M. Veithen, J.-Y. Raty, V. Olevano, F. Bruneval,
- L. Reining, R. Godby, G. Onida, D.R. Hamann, and D.C. Allan.
- Comment : the second generic paper describing the ABINIT project. Note that this paper
- should be cited especially if you are using the GW part of ABINIT, as several authors
- of this part are not in the list of authors of the first or third paper.
- The .pdf of the latter paper is available at https://www.abinit.org/about/zfk_0505-06_558-562.pdf.
- Note that it should not redistributed (Copyright by Oldenburg Wissenshaftverlag,
- the licence allows the authors to put it on the Web).
-
- And optionally:
-
- [4] First-principles computation of material properties : the ABINIT software project. 
- X. Gonze, J.-M. Beuken, R. Caracas, F. Detraux, M. Fuchs, G.-M. Rignanese, L. Sindic,
- M. Verstraete, G. Zerah, F. Jollet, M. Torrent, A. Roy, M. Mikami, Ph. Ghosez, J.-Y. Raty, D.C. Allan.
- Computational Materials Science 25, 478-492 (2002). http://dx.doi.org/10.1016/S0927-0256(02)00325-7
- Comment : the original paper describing the ABINIT project.

 Calculation completed.
.Delivered   4 WARNINGs and   9 COMMENTs to log file.

--- !FinalSummary
program: abinit
version: 8.6.3
start_datetime: Sat Apr 21 12:36:51 2018
end_datetime: Sat Apr 21 12:37:15 2018
overall_cpu_time:          23.5
overall_wall_time:          23.9
exit_requested_by_user: no 
timelimit: 0
pseudos: 
    Ti  : 9d5151159dba5b2d9be995f71cdbe165
    O   : f9a33d255b992d3a483d25bc79688495
usepaw: 0
mpi_procs: 1
omp_threads: 1
num_warnings: 4
num_comments: 9
...
