
.Version 8.6.3 of ABINIT 
.(sequential version, prepared for a x86_64_linux_gnu5.4 computer) 

.Copyright (C) 1998-2017 ABINIT group . 
 ABINIT comes with ABSOLUTELY NO WARRANTY.
 It is free software, and you are welcome to redistribute it
 under certain conditions (GNU General Public License,
 see ~abinit/COPYING or http://www.gnu.org/copyleft/gpl.txt).

 ABINIT is a project of the Universite Catholique de Louvain,
 Corning Inc. and other collaborators, see ~abinit/doc/developers/contributors.txt .
 Please read ~abinit/doc/users/acknowledgments.html for suggested
 acknowledgments of the ABINIT effort.
 For more information, see https://www.abinit.org .

.Starting date : Fri 27 Apr 2018.
- ( at 21h50 )
  
- input  file    -> RutileDOS.in
- output file    -> RutileDOS.out
- root for input  files -> RutileDOS_i
- root for output files -> RutileDOS_o


 Symmetries : space group P-4 2_1 m (#113); Bravais tP (primitive tetrag.)
================================================================================
 Values of the parameters that define the memory need of the present run
     intxc =       0    ionmov =       0      iscf =       7    lmnmax =       2
     lnmax =       2     mgfft =      64  mpssoang =       3    mqgrid =    3027
     natom =       6  nloc_mem =       1    nspden =       1   nspinor =       1
    nsppol =       1      nsym =       8    n1xccc =    2501    ntypat =       2
    occopt =       1   xclevel =       2
-    mband =          17        mffmem =           1         mkmem =           8
       mpw =        9376          nfft =      163840          nkpt =           8
================================================================================
P This job should need less than                      73.770 Mbytes of memory.
  Rough estimation (10% accuracy) of disk space for files :
_ WF disk file :     19.459 Mbytes ; DEN or POT disk file :      1.252 Mbytes.
================================================================================

--------------------------------------------------------------------------------
------------- Echo of variables that govern the present computation ------------
--------------------------------------------------------------------------------
-
- outvars: echo of selected default values                                      
-   iomode0 =  0 , fftalg0 =112 , wfoptalg0 =  0
-
- outvars: echo of global parameters not present in the input file              
-  max_nthreads =    0
-
 -outvars: echo values of preprocessed input variables --------
            acell      8.6808000000E+00  5.5911000000E+00  8.6808000000E+00 Bohr
              amu      4.78800000E+01  1.59994000E+01
           diemac      1.20000000E+01
             ecut      6.00000000E+01 Hartree
-          fftalg         112
           getwfk          -1
              ixc          11
              kpt     -2.50000000E-01  5.00000000E-01  0.00000000E+00
                       5.00000000E-01 -2.50000000E-01  0.00000000E+00
                      -2.50000000E-01 -2.50000000E-01  2.50000000E-01
                      -2.50000000E-01  0.00000000E+00  0.00000000E+00
                       5.00000000E-01  5.00000000E-01  2.50000000E-01
                       0.00000000E+00 -2.50000000E-01  0.00000000E+00
                       5.00000000E-01 -2.50000000E-01  5.00000000E-01
                       5.00000000E-01  0.00000000E+00  2.50000000E-01
         kptrlatt        2   -2    2      0    4    0     -2   -2    2
          kptrlen      2.23644000E+01
P           mkmem           8
            natom           6
            nband          17
            ngfft          64      40      64
             nkpt           8
            nstep          50
             nsym           8
           ntypat           2
              occ      2.000000  2.000000  2.000000  2.000000  2.000000  2.000000
                       2.000000  2.000000  2.000000  2.000000  2.000000  2.000000
                       2.000000  2.000000  2.000000  2.000000  0.000000
           prtdos           2
           shiftk      5.00000000E-01  0.00000000E+00  5.00000000E-01
          spgroup         113
           symrel      1  0  0   0  1  0   0  0  1       1  0  0   0 -1  0   0  0 -1
                      -1  0  0   0  1  0   0  0 -1      -1  0  0   0 -1  0   0  0  1
                       0  0  1   0  1  0   1  0  0       0  0  1   0 -1  0  -1  0  0
                       0  0 -1   0  1  0  -1  0  0       0  0 -1   0 -1  0   1  0  0
            tnons      0.0000000  0.0000000  0.0000000     0.5000000 -0.4999911  0.5000000
                       0.0000000  0.0000000  0.0000000     0.5000000 -0.4999911  0.5000000
                       0.0000000  0.0000000  0.0000000     0.5000000 -0.4999911  0.5000000
                       0.0000000  0.0000000  0.0000000     0.5000000 -0.4999911  0.5000000
           toldfe      1.00000000E-04 Hartree
            typat      1  1  2  2  2  2
              wtk        0.12500    0.12500    0.25000    0.12500    0.12500    0.06250
                         0.06250    0.12500
           xangst      0.0000000000E+00  0.0000000000E+00  0.0000000000E+00
                       2.2968407562E+00  1.4793678043E+00  2.2968407562E+00
                       3.1696656440E+00  0.0000000000E+00  1.4240158683E+00
                       1.4240158683E+00  0.0000000000E+00  3.1696656440E+00
                       8.7282488785E-01  1.4793678043E+00  8.7282488785E-01
                       3.7208566245E+00  1.4793678043E+00  3.7208566245E+00
            xcart      0.0000000000E+00  0.0000000000E+00  0.0000000000E+00
                       4.3404000000E+00  2.7956000000E+00  4.3404000000E+00
                       5.9898000000E+00  0.0000000000E+00  2.6910000000E+00
                       2.6910000000E+00  0.0000000000E+00  5.9898000000E+00
                       1.6494000000E+00  2.7956000000E+00  1.6494000000E+00
                       7.0314000000E+00  2.7956000000E+00  7.0314000000E+00
             xred      0.0000000000E+00  0.0000000000E+00  0.0000000000E+00
                       5.0000000000E-01  5.0000894278E-01  5.0000000000E-01
                       6.9000552944E-01  0.0000000000E+00  3.0999447056E-01
                       3.0999447056E-01  0.0000000000E+00  6.9000552944E-01
                       1.9000552944E-01  5.0000894278E-01  1.9000552944E-01
                       8.0999447056E-01  5.0000894278E-01  8.0999447056E-01
            znucl       22.00000    8.00000

================================================================================

 chkinp: Checking input parameters for consistency.

 chkinp: WARNING -
   Chksymbreak=1 . Found potentially symmetry-breaking value of tnons, 
   which is neither a rational fraction in 1/8th nor in 1/12th :
   for the symmetry number    2
   symrel is   1  0  0  0 -1  0  0  0 -1
   tnons is     5.000000E-01   -4.999911E-01    5.000000E-01
   Please, read the description of the input variable chksymbreak,
   then, if you feel confident, you might switch it to zero, or consult with the forum.

 chkinp: WARNING -
   Chksymbreak=1 . Found potentially symmetry-breaking value of tnons, 
   which is neither a rational fraction in 1/8th nor in 1/12th :
   for the symmetry number    4
   symrel is  -1  0  0  0 -1  0  0  0  1
   tnons is     5.000000E-01   -4.999911E-01    5.000000E-01
   Please, read the description of the input variable chksymbreak,
   then, if you feel confident, you might switch it to zero, or consult with the forum.

 chkinp: WARNING -
   Chksymbreak=1 . Found potentially symmetry-breaking value of tnons, 
   which is neither a rational fraction in 1/8th nor in 1/12th :
   for the symmetry number    6
   symrel is   0  0  1  0 -1  0 -1  0  0
   tnons is     5.000000E-01   -4.999911E-01    5.000000E-01
   Please, read the description of the input variable chksymbreak,
   then, if you feel confident, you might switch it to zero, or consult with the forum.

 chkinp: WARNING -
   Chksymbreak=1 . Found potentially symmetry-breaking value of tnons, 
   which is neither a rational fraction in 1/8th nor in 1/12th :
   for the symmetry number    8
   symrel is   0  0 -1  0 -1  0  1  0  0
   tnons is     5.000000E-01   -4.999911E-01    5.000000E-01
   Please, read the description of the input variable chksymbreak,
   then, if you feel confident, you might switch it to zero, or consult with the forum.

================================================================================
== DATASET  1 ==================================================================
-   nproc =    1

 Exchange-correlation functional for the present dataset will be:
  GGA: Perdew-Burke-Ernzerhof functional - ixc=11
 Citation for XC functional:
  J.P.Perdew, K.Burke, M.Ernzerhof, PRL 77, 3865 (1996)

 Real(R)+Recip(G) space primitive vectors, cartesian coordinates (Bohr,Bohr^-1):
 R(1)=  8.6808000  0.0000000  0.0000000  G(1)=  0.1151968  0.0000000  0.0000000
 R(2)=  0.0000000  5.5911000  0.0000000  G(2)=  0.0000000  0.1788557  0.0000000
 R(3)=  0.0000000  0.0000000  8.6808000  G(3)=  0.0000000  0.0000000  0.1151968
 Unit cell volume ucvol=  4.2132455E+02 bohr^3
 Angles (23,13,12)=  9.00000000E+01  9.00000000E+01  9.00000000E+01 degrees

 getcut: wavevector=  0.0000  0.0000  0.0000  ngfft=  64  40  64
         ecut(hartree)=     60.000   => boxcut(ratio)=   2.05174

--- Pseudopotential description ------------------------------------------------
- pspini: atom type   1  psp file is ../../../Psps_for_tests/22ti.pspnc
- pspatm: opening atomic psp file    ../../../Psps_for_tests/22ti.pspnc
-  Troullier-Martins psp for element  Ti        Thu Oct 27 17:33:40 EDT 1994
- 22.00000   4.00000    940714                znucl, zion, pspdat
    1    1    2    0      2001   0.00000      pspcod,pspxc,lmax,lloc,mmax,r2well
    0   5.166   8.509    0   2.4203472        l,e99.0,e99.9,nproj,rcpsp
   0.00000000   0.00000000   0.00000000   0.00000000     rms, ekb1, ekb2, epsatm
    1   2.285   3.944    1   2.9934301        l,e99.0,e99.9,nproj,rcpsp
   0.00000000   0.00000000   0.00000000   0.00000000     rms, ekb1, ekb2, epsatm
    2  20.947  27.069    1   1.9326638        l,e99.0,e99.9,nproj,rcpsp
   0.00000000   0.00000000   0.00000000   0.00000000     rms, ekb1, ekb2, epsatm
    2.82741504495369    0.09256629068341    1.82586447305099   rchrg,fchrg,qchrg
  pspatm : epsatm=   66.67453488
         --- l  ekb(1:nproj) -->
             1    0.915537
             2   -8.015692
 pspatm: atomic psp has been read  and splines computed

- pspini: atom type   2  psp file is ../../../Psps_for_tests/8o.pspnc
- pspatm: opening atomic psp file    ../../../Psps_for_tests/8o.pspnc
-  Troullier-Martins psp for element  O         Thu Oct 27 17:29:57 EDT 1994
-  8.00000   6.00000    940714                znucl, zion, pspdat
    1    1    1    1      2001   0.00000      pspcod,pspxc,lmax,lloc,mmax,r2well
    0   5.480  16.893    1   1.4482335        l,e99.0,e99.9,nproj,rcpsp
   0.00000000   0.00000000   0.00000000   0.00000000     rms, ekb1, ekb2, epsatm
    1  20.911  28.075    0   1.4482335        l,e99.0,e99.9,nproj,rcpsp
   0.00000000   0.00000000   0.00000000   0.00000000     rms, ekb1, ekb2, epsatm
    0.56990156784787    3.95561236318184    0.63894027514378   rchrg,fchrg,qchrg
  pspatm : epsatm=    1.57752239
         --- l  ekb(1:nproj) -->
             0    5.670783
 pspatm: atomic psp has been read  and splines computed

   4.46909310E+03                                ecore*ucvol(ha*bohr**3)
--------------------------------------------------------------------------------

_setup2: Arith. and geom. avg. npw (full set) are    9352.688    9352.676

================================================================================

     iter   Etot(hartree)      deltaE(h)  residm     vres2
 ETOT  1  -74.438045440330    -7.444E+01 2.605E-01 1.608E+03
 ETOT  2  -74.900205221163    -4.622E-01 2.123E-02 1.312E+03
 ETOT  3  -75.062651685817    -1.624E-01 4.490E-03 2.531E+02
 ETOT  4  -75.121062652028    -5.841E-02 2.632E-03 1.158E+01
 ETOT  5  -75.122678316266    -1.616E-03 2.311E-03 1.024E+01
 ETOT  6  -75.123727500991    -1.049E-03 1.358E-03 1.999E+00
 ETOT  7  -75.124068264976    -3.408E-04 1.801E-03 6.233E-01
 ETOT  8  -75.124188065896    -1.198E-04 1.052E-03 6.929E-02
 ETOT  9  -75.124204094642    -1.603E-05 1.329E-03 1.018E-03
 ETOT 10  -75.124205135483    -1.041E-06 7.035E-04 4.060E-04

 At SCF step   10, etot is converged : 
  for the second time, diff in etot=  1.041E-06 < toldfe=  1.000E-04

 Cartesian components of stress tensor (hartree/bohr^3)
  sigma(1 1)= -1.52868468E-03  sigma(3 2)=  0.00000000E+00
  sigma(2 2)= -2.24503657E-03  sigma(3 1)=  0.00000000E+00
  sigma(3 3)= -1.52868468E-03  sigma(2 1)=  0.00000000E+00

 Integrated electronic density in atomic spheres:
 ------------------------------------------------
 Atom  Sphere_radius  Integrated_density
    1        2.00000          1.70492707
    2        2.00000          1.70492706
    3        2.00000          6.21230950
    4        2.00000          6.21230950
    5        2.00000          6.21230950
    6        2.00000          6.21230950
================================================================================

 ----iterations are completed or convergence reached----

 Mean square residual over all n,k,spin=   1.2575E-05; max=  7.0350E-04
 reduced coordinates (array xred) for    6 atoms
       0.000000000000      0.000000000000      0.000000000000
       0.500000000000      0.500008942784      0.500000000000
       0.690005529444      0.000000000000      0.309994470556
       0.309994470556      0.000000000000      0.690005529444
       0.190005529444      0.500008942784      0.190005529444
       0.809994470556      0.500008942784      0.809994470556
 rms dE/dt=  1.8905E-01; max dE/dt=  2.8358E-01; dE/dt below (all hartree)
    1       0.000000000000     -0.000033329503      0.000000000000
    2       0.000000000000      0.000033329503      0.000000000000
    3      -0.283577466672     -0.000006510002      0.283577466672
    4       0.283577466672     -0.000006510002     -0.283577466672
    5      -0.283577466672      0.000006510002     -0.283577466672
    6       0.283577466672      0.000006510002      0.283577466672

 cartesian coordinates (angstrom) at end:
    1      0.00000000000000     0.00000000000000     0.00000000000000
    2      2.29684075616404     1.47936780433420     2.29684075616404
    3      3.16966564401238     0.00000000000000     1.42401586831569
    4      1.42401586831569     0.00000000000000     3.16966564401238
    5      0.87282488784835     1.47936780433420     0.87282488784835
    6      3.72085662447973     1.47936780433420     3.72085662447973

 cartesian forces (hartree/bohr) at end:
    1      0.00000000000000     0.00000596117093    -0.00000000000000
    2      0.00000000000000    -0.00000596117093    -0.00000000000000
    3      0.03266720425218     0.00000116435084    -0.03266720425218
    4     -0.03266720425218     0.00000116435084     0.03266720425218
    5      0.03266720425218    -0.00000116435084     0.03266720425218
    6     -0.03266720425218    -0.00000116435084    -0.03266720425218
 frms,max,avg= 2.1778136E-02 3.2667204E-02   0.000E+00  0.000E+00  0.000E+00 h/b

 cartesian forces (eV/Angstrom) at end:
    1      0.00000000000000     0.00030653570804    -0.00000000000000
    2      0.00000000000000    -0.00030653570804    -0.00000000000000
    3      1.67981504136898     0.00005987332234    -1.67981504136898
    4     -1.67981504136898     0.00005987332234     1.67981504136898
    5      1.67981504136898    -0.00005987332234     1.67981504136898
    6     -1.67981504136898    -0.00005987332234    -1.67981504136898
 frms,max,avg= 1.1198767E+00 1.6798150E+00   0.000E+00  0.000E+00  0.000E+00 e/A
 length scales=  8.680800000000  5.591100000000  8.680800000000 bohr
              =  4.593681512328  2.958682690948  4.593681512328 angstroms
 prteigrs : about to open file RutileDOS_o_EIG
 Fermi (or HOMO) energy (hartree) =  -0.10774   Average Vxc (hartree)=  -0.40654
 Eigenvalues (hartree) for nkpt=   8  k points:
 kpt#   1, nband= 17, wtk=  0.12500, kpt= -0.2500  0.5000  0.0000 (reduced coord)
  -0.70827   -0.70827   -0.70037   -0.70037   -0.26836   -0.26836   -0.24395   -0.24395
  -0.21481   -0.21481   -0.19617   -0.19617   -0.16304   -0.16304   -0.15526   -0.15525
  -0.00447
 prteigrs : prtvol=0 or 1, do not print more k-points.


--------------------------------------------------------------------------------
 Components of total free energy (in Hartree) :

    Kinetic energy  =  5.64207815926839E+01
    Hartree energy  =  1.84342581069771E+01
    XC energy       = -2.14114482066367E+01
    Ewald energy    = -5.78703072019793E+01
    PspCore energy  =  1.06072459991360E+01
    Loc. psp. energy= -7.69747810661586E+01
    NL   psp  energy= -4.32995435950502E+00
    >>>>>>>>> Etotal= -7.51242051354826E+01

 Other information on the energy :
    Total energy(eV)= -2.04423358311900E+03 ; Band energy (Ha)=  -1.0527084689E+01
--------------------------------------------------------------------------------

 Cartesian components of stress tensor (hartree/bohr^3)
  sigma(1 1)= -1.52868468E-03  sigma(3 2)=  0.00000000E+00
  sigma(2 2)= -2.24503657E-03  sigma(3 1)=  0.00000000E+00
  sigma(3 3)= -1.52868468E-03  sigma(2 1)=  0.00000000E+00

-Cartesian components of stress tensor (GPa)         [Pressure=  5.2001E+01 GPa]
- sigma(1 1)= -4.49754486E+01  sigma(3 2)=  0.00000000E+00
- sigma(2 2)= -6.60512452E+01  sigma(3 1)=  0.00000000E+00
- sigma(3 3)= -4.49754486E+01  sigma(2 1)=  0.00000000E+00

== END DATASET(S) ==============================================================
================================================================================
  
 -outvars: echo values of variables after computation  --------
            acell      8.6808000000E+00  5.5911000000E+00  8.6808000000E+00 Bohr
              amu      4.78800000E+01  1.59994000E+01
           diemac      1.20000000E+01
             ecut      6.00000000E+01 Hartree
           etotal     -7.5124205135E+01
            fcart      2.3129646346E-18  5.9611709256E-06 -1.1564823173E-18
                       2.3129646346E-18 -5.9611709256E-06 -1.1564823173E-18
                       3.2667204252E-02  1.1643508374E-06 -3.2667204252E-02
                      -3.2667204252E-02  1.1643508374E-06  3.2667204252E-02
                       3.2667204252E-02 -1.1643508374E-06  3.2667204252E-02
                      -3.2667204252E-02 -1.1643508374E-06 -3.2667204252E-02
-          fftalg         112
           getwfk          -1
              ixc          11
              kpt     -2.50000000E-01  5.00000000E-01  0.00000000E+00
                       5.00000000E-01 -2.50000000E-01  0.00000000E+00
                      -2.50000000E-01 -2.50000000E-01  2.50000000E-01
                      -2.50000000E-01  0.00000000E+00  0.00000000E+00
                       5.00000000E-01  5.00000000E-01  2.50000000E-01
                       0.00000000E+00 -2.50000000E-01  0.00000000E+00
                       5.00000000E-01 -2.50000000E-01  5.00000000E-01
                       5.00000000E-01  0.00000000E+00  2.50000000E-01
         kptrlatt        2   -2    2      0    4    0     -2   -2    2
          kptrlen      2.23644000E+01
P           mkmem           8
            natom           6
            nband          17
            ngfft          64      40      64
             nkpt           8
            nstep          50
             nsym           8
           ntypat           2
              occ      2.000000  2.000000  2.000000  2.000000  2.000000  2.000000
                       2.000000  2.000000  2.000000  2.000000  2.000000  2.000000
                       2.000000  2.000000  2.000000  2.000000  0.000000
           prtdos           2
           shiftk      5.00000000E-01  0.00000000E+00  5.00000000E-01
          spgroup         113
           strten     -1.5286846827E-03 -2.2450365697E-03 -1.5286846827E-03
                       0.0000000000E+00  0.0000000000E+00  0.0000000000E+00
           symrel      1  0  0   0  1  0   0  0  1       1  0  0   0 -1  0   0  0 -1
                      -1  0  0   0  1  0   0  0 -1      -1  0  0   0 -1  0   0  0  1
                       0  0  1   0  1  0   1  0  0       0  0  1   0 -1  0  -1  0  0
                       0  0 -1   0  1  0  -1  0  0       0  0 -1   0 -1  0   1  0  0
            tnons      0.0000000  0.0000000  0.0000000     0.5000000 -0.4999911  0.5000000
                       0.0000000  0.0000000  0.0000000     0.5000000 -0.4999911  0.5000000
                       0.0000000  0.0000000  0.0000000     0.5000000 -0.4999911  0.5000000
                       0.0000000  0.0000000  0.0000000     0.5000000 -0.4999911  0.5000000
           toldfe      1.00000000E-04 Hartree
            typat      1  1  2  2  2  2
              wtk        0.12500    0.12500    0.25000    0.12500    0.12500    0.06250
                         0.06250    0.12500
           xangst      0.0000000000E+00  0.0000000000E+00  0.0000000000E+00
                       2.2968407562E+00  1.4793678043E+00  2.2968407562E+00
                       3.1696656440E+00  0.0000000000E+00  1.4240158683E+00
                       1.4240158683E+00  0.0000000000E+00  3.1696656440E+00
                       8.7282488785E-01  1.4793678043E+00  8.7282488785E-01
                       3.7208566245E+00  1.4793678043E+00  3.7208566245E+00
            xcart      0.0000000000E+00  0.0000000000E+00  0.0000000000E+00
                       4.3404000000E+00  2.7956000000E+00  4.3404000000E+00
                       5.9898000000E+00  0.0000000000E+00  2.6910000000E+00
                       2.6910000000E+00  0.0000000000E+00  5.9898000000E+00
                       1.6494000000E+00  2.7956000000E+00  1.6494000000E+00
                       7.0314000000E+00  2.7956000000E+00  7.0314000000E+00
             xred      0.0000000000E+00  0.0000000000E+00  0.0000000000E+00
                       5.0000000000E-01  5.0000894278E-01  5.0000000000E-01
                       6.9000552944E-01  0.0000000000E+00  3.0999447056E-01
                       3.0999447056E-01  0.0000000000E+00  6.9000552944E-01
                       1.9000552944E-01  5.0000894278E-01  1.9000552944E-01
                       8.0999447056E-01  5.0000894278E-01  8.0999447056E-01
            znucl       22.00000    8.00000

================================================================================

- Total cpu        time (s,m,h):         48.9        0.82      0.014
- Total wall clock time (s,m,h):         50.1        0.83      0.014
-
- For major independent code sections, cpu and wall times (sec),
-  as well as % of the time and number of calls for node 0-
-<BEGIN_TIMER mpi_nprocs = 1, omp_nthreads = 1, mpi_rank = 0>
- cpu_time =           48.9, wall_time =           50.1
-
- routine                        cpu     %       wall     %      number of calls  Gflops    Speedup Efficacity
-                                                                  (-1=no count)
- fourwf%(pot)                  24.500  50.1     25.266  50.4           8160      -1.00        0.97       0.97
- projbd                         7.328  15.0      7.168  14.3          13056      -1.00        1.02       1.02
- nonlop(apply)                  6.453  13.2      6.329  12.6           8160      -1.00        1.02       1.02
- fourwf%(den)                   2.297   4.7      2.296   4.6           1280      -1.00        1.00       1.00
- vtowfk(ssdiag)                 1.297   2.7      1.400   2.8             -1      -1.00        0.93       0.93
- pspini                         0.719   1.5      0.741   1.5              1      -1.00        0.97       0.97
- getghc-other                   0.578   1.2      0.468   0.9             -1      -1.00        1.24       1.24
- xc:pot/=fourdp                 0.516   1.1      0.493   1.0             11      -1.00        1.05       1.05
- fourdp                         0.297   0.6      0.318   0.6            139      -1.00        0.93       0.93
- others (104)                   0.922   1.9      1.064   2.1             -1      -1.00        0.87       0.87
-<END_TIMER>
-
- subtotal                      44.906  91.8     45.543  90.9                                  0.99       0.99

- For major independent code sections, cpu and wall times (sec),
- as well as % of the total time and number of calls 

-<BEGIN_TIMER mpi_nprocs = 1, omp_nthreads = 1, mpi_rank = world>
- cpu_time =          48.9, wall_time =          50.1
-
- routine                         cpu     %       wall     %      number of calls Gflops    Speedup Efficacity
-                                                                  (-1=no count)
- fourwf%(pot)                  24.500  50.1     25.266  50.4           8160      -1.00        0.97       0.97
- projbd                         7.328  15.0      7.168  14.3          13056      -1.00        1.02       1.02
- nonlop(apply)                  6.453  13.2      6.329  12.6           8160      -1.00        1.02       1.02
- fourwf%(den)                   2.297   4.7      2.296   4.6           1280      -1.00        1.00       1.00
- vtowfk(ssdiag)                 1.297   2.7      1.400   2.8             -1      -1.00        0.93       0.93
- pspini                         0.719   1.5      0.741   1.5              1      -1.00        0.97       0.97
- getghc-other                   0.578   1.2      0.468   0.9             -1      -1.00        1.24       1.24
- xc:pot/=fourdp                 0.516   1.1      0.493   1.0             11      -1.00        1.05       1.05
- fourdp                         0.297   0.6      0.318   0.6            139      -1.00        0.93       0.93
- others (104)                   0.922   1.9      1.064   2.1             -1      -1.00        0.87       0.87
-<END_TIMER>

- subtotal                      44.906  91.8     45.543  90.9                                  0.99       0.99

================================================================================

 Suggested references for the acknowledgment of ABINIT usage.

 The users of ABINIT have little formal obligations with respect to the ABINIT group
 (those specified in the GNU General Public License, http://www.gnu.org/copyleft/gpl.txt).
 However, it is common practice in the scientific literature,
 to acknowledge the efforts of people that have made the research possible.
 In this spirit, please find below suggested citations of work written by ABINIT developers,
 corresponding to implementations inside of ABINIT that you have used in the present run.
 Note also that it will be of great value to readers of publications presenting these results,
 to read papers enabling them to understand the theoretical formalism and details
 of the ABINIT implementation.
 For information on why they are suggested, see also https://www.abinit.org/about/?text=acknowledgments.
-
- [1] Recent developments in the ABINIT software package.
- Computer Phys. Comm. 205, 106 (2016).
- X.Gonze, F.Jollet, F.Abreu Araujo, D.Adams, B.Amadon, T.Applencourt,
- C.Audouze, J.-M.Beuken, J.Bieder, A.Bokhanchuk, E.Bousquet, F.Bruneval
- D.Caliste, M.Cote, F.Dahm, F.Da Pieve, M.Delaveau, M.Di Gennaro,
- B.Dorado, C.Espejo, G.Geneste, L.Genovese, A.Gerossier, M.Giantomassi,
- Y.Gillet, D.R.Hamann, L.He, G.Jomard, J.Laflamme Janssen, S.Le Roux,
- A.Levitt, A.Lherbier, F.Liu, I.Lukacevic, A.Martin, C.Martins,
- M.J.T.Oliveira, S.Ponce, Y.Pouillon, T.Rangel, G.-M.Rignanese,
- A.H.Romero, B.Rousseau, O.Rubel, A.A.Shukri, M.Stankovski, M.Torrent,
- M.J.Van Setten, B.Van Troeye, M.J.Verstraete, D.Waroquier, J.Wiktor,
- B.Xue, A.Zhou, J.W.Zwanziger.
- Comment : the fourth generic paper describing the ABINIT project.
- Note that a version of this paper, that is not formatted for Computer Phys. Comm. 
- is available at https://www.abinit.org/about/ABINIT16.pdf .
- The licence allows the authors to put it on the Web.
-
- [2] ABINIT : First-principles approach of materials and nanosystem properties.
- Computer Phys. Comm. 180, 2582-2615 (2009).
- X. Gonze, B. Amadon, P.-M. Anglade, J.-M. Beuken, F. Bottin, P. Boulanger, F. Bruneval,
- D. Caliste, R. Caracas, M. Cote, T. Deutsch, L. Genovese, Ph. Ghosez, M. Giantomassi
- S. Goedecker, D.R. Hamann, P. Hermet, F. Jollet, G. Jomard, S. Leroux, M. Mancini, S. Mazevet,
- M.J.T. Oliveira, G. Onida, Y. Pouillon, T. Rangel, G.-M. Rignanese, D. Sangalli, R. Shaltaf,
- M. Torrent, M.J. Verstraete, G. Zerah, J.W. Zwanziger
- Comment : the third generic paper describing the ABINIT project.
- Note that a version of this paper, that is not formatted for Computer Phys. Comm. 
- is available at https://www.abinit.org/about/ABINIT_CPC_v10.pdf .
- The licence allows the authors to put it on the Web.
-
- [3] A brief introduction to the ABINIT software package.
- Z. Kristallogr. 220, 558-562 (2005).
- X. Gonze, G.-M. Rignanese, M. Verstraete, J.-M. Beuken, Y. Pouillon, R. Caracas, F. Jollet,
- M. Torrent, G. Zerah, M. Mikami, Ph. Ghosez, M. Veithen, J.-Y. Raty, V. Olevano, F. Bruneval,
- L. Reining, R. Godby, G. Onida, D.R. Hamann, and D.C. Allan.
- Comment : the second generic paper describing the ABINIT project. Note that this paper
- should be cited especially if you are using the GW part of ABINIT, as several authors
- of this part are not in the list of authors of the first or third paper.
- The .pdf of the latter paper is available at https://www.abinit.org/about/zfk_0505-06_558-562.pdf.
- Note that it should not redistributed (Copyright by Oldenburg Wissenshaftverlag,
- the licence allows the authors to put it on the Web).
-
- And optionally:
-
- [4] First-principles computation of material properties : the ABINIT software project. 
- X. Gonze, J.-M. Beuken, R. Caracas, F. Detraux, M. Fuchs, G.-M. Rignanese, L. Sindic,
- M. Verstraete, G. Zerah, F. Jollet, M. Torrent, A. Roy, M. Mikami, Ph. Ghosez, J.-Y. Raty, D.C. Allan.
- Computational Materials Science 25, 478-492 (2002). http://dx.doi.org/10.1016/S0927-0256(02)00325-7
- Comment : the original paper describing the ABINIT project.
-
- Proc.   0 individual time (sec): cpu=         48.9  wall=         50.1

================================================================================

 Calculation completed.
.Delivered   6 WARNINGs and   0 COMMENTs to log file.
+Overall time at end (sec) : cpu=         48.9  wall=         50.1
