
.Version 8.6.3 of ABINIT 
.(sequential version, prepared for a x86_64_linux_gnu5.4 computer) 

.Copyright (C) 1998-2017 ABINIT group . 
 ABINIT comes with ABSOLUTELY NO WARRANTY.
 It is free software, and you are welcome to redistribute it
 under certain conditions (GNU General Public License,
 see ~abinit/COPYING or http://www.gnu.org/copyleft/gpl.txt).

 ABINIT is a project of the Universite Catholique de Louvain,
 Corning Inc. and other collaborators, see ~abinit/doc/developers/contributors.txt .
 Please read ~abinit/doc/users/acknowledgments.html for suggested
 acknowledgments of the ABINIT effort.
 For more information, see https://www.abinit.org .

.Starting date : Sat 21 Apr 2018.
- ( at 00h31 )
  
- input  file    -> sim3geomRed.in
- output file    -> sim3geomRed.out
- root for input  files -> sim3geomRed_i
- root for output files -> sim3geomRed_o


 Symmetries : space group Cm (#  8); Bravais mC (1-face-center monocl.)
================================================================================
 Values of the parameters that define the memory need of the present run
     intxc =       0    ionmov =       2      iscf =       7    lmnmax =       6
     lnmax =       6     mgfft =     135  mpssoang =       3    mqgrid =    4474
     natom =      10  nloc_mem =       1    nspden =       1   nspinor =       1
    nsppol =       1      nsym =       2    n1xccc =    2501    ntypat =       3
    occopt =       1   xclevel =       1
-    mband =          54        mffmem =           1         mkmem =          16
       mpw =        4047          nfft =      121500          nkpt =          16
================================================================================
P This job should need less than                      92.221 Mbytes of memory.
  Rough estimation (10% accuracy) of disk space for files :
_ WF disk file :     53.356 Mbytes ; DEN or POT disk file :      0.929 Mbytes.
================================================================================

--------------------------------------------------------------------------------
------------- Echo of variables that govern the present computation ------------
--------------------------------------------------------------------------------
-
- outvars: echo of selected default values                                      
-   iomode0 =  0 , fftalg0 =112 , wfoptalg0 =  0
-
- outvars: echo of global parameters not present in the input file              
-  max_nthreads =    0
-
 -outvars: echo values of preprocessed input variables --------
            acell      8.6808000000E+00  8.6808000000E+00  2.9625700000E+01 Bohr
              amu      4.78800000E+01  1.59994000E+01  1.06420000E+02
           diemac      1.20000000E+01
          dilatmx      1.50000000E+00
             ecut      5.00000000E+00 Hartree
           ecutsm      5.00000000E-01 Hartree
-          fftalg         112
           getwfk          -1
           ionmov           2
           istwfk        0    0    0    0    0    7    0    0    5    0
                         0    0    0    6    0    4
              kpt     -1.25000000E-01  0.00000000E+00  0.00000000E+00
                      -2.50000000E-01  5.00000000E-01  0.00000000E+00
                      -1.25000000E-01  5.00000000E-01  5.00000000E-01
                      -3.75000000E-01  0.00000000E+00  0.00000000E+00
                      -2.50000000E-01  0.00000000E+00  5.00000000E-01
                       5.00000000E-01  5.00000000E-01  0.00000000E+00
                      -3.75000000E-01  5.00000000E-01  5.00000000E-01
                       3.75000000E-01  0.00000000E+00  0.00000000E+00
                       5.00000000E-01  0.00000000E+00  5.00000000E-01
                       2.50000000E-01  5.00000000E-01  0.00000000E+00
                       3.75000000E-01  5.00000000E-01  5.00000000E-01
                       1.25000000E-01  0.00000000E+00  0.00000000E+00
                       2.50000000E-01  0.00000000E+00  5.00000000E-01
                       0.00000000E+00  5.00000000E-01  0.00000000E+00
                       1.25000000E-01  5.00000000E-01  5.00000000E-01
                       0.00000000E+00  0.00000000E+00  5.00000000E-01
           kptopt           3
         kptrlatt        4   -1    1      0    2    0     -4   -1    1
          kptrlen      1.73616000E+01
P           mkmem          16
            natom          10
            nband          54
            ngfft          30      30     135
             nkpt          16
            nstep          15
             nsym           2
            ntime          10
           ntypat           3
              occ      2.000000  2.000000  2.000000  2.000000  2.000000  2.000000
                       2.000000  2.000000  2.000000  2.000000  2.000000  2.000000
                       2.000000  2.000000  2.000000  2.000000  2.000000  2.000000
                       2.000000  2.000000  2.000000  2.000000  2.000000  2.000000
                       2.000000  2.000000  2.000000  2.000000  2.000000  2.000000
                       2.000000  2.000000  2.000000  2.000000  2.000000  2.000000
                       2.000000  2.000000  2.000000  2.000000  2.000000  2.000000
                       2.000000  2.000000  2.000000  2.000000  2.000000  2.000000
                       2.000000  2.000000  2.000000  2.000000  0.000000  0.000000
          optcell           3
           shiftk      5.00000000E-01  0.00000000E+00  5.00000000E-01
          spgroup           8
           symrel      1  0  0   0  1  0   0  0  1       0  1  0   1  0  0   0  0  1
           toldfe      1.00000000E+01 Hartree
            typat      1  1  2  2  2  2  3  3  3  3
              wtk        0.06250    0.06250    0.06250    0.06250    0.06250    0.06250
                         0.06250    0.06250    0.06250    0.06250    0.06250    0.06250
                         0.06250    0.06250    0.06250    0.06250
           xangst      0.0000000000E+00  0.0000000000E+00  0.0000000000E+00
                       2.2968407562E+00  2.2968407562E+00  1.4793678043E+00
                       3.4452611342E+00  1.1484203781E+00  0.0000000000E+00
                       1.1484203781E+00  3.4452611342E+00  0.0000000000E+00
                       1.1484203781E+00  1.1484203781E+00  0.0000000000E+00
                       3.4452611342E+00  3.4452611342E+00  0.0000000000E+00
                       0.0000000000E+00  0.0000000000E+00  1.5677245229E+01
                       2.2968407562E+00  2.2968407562E+00  1.1786522720E+01
                       2.2968407562E+00  3.5147950195E-01  1.3731883974E+01
                       3.5147950195E-01  2.2968407562E+00  1.3731883974E+01
            xcart      0.0000000000E+00  0.0000000000E+00  0.0000000000E+00
                       4.3404000000E+00  4.3404000000E+00  2.7956000000E+00
                       6.5106000000E+00  2.1702000000E+00  0.0000000000E+00
                       2.1702000000E+00  6.5106000000E+00  0.0000000000E+00
                       2.1702000000E+00  2.1702000000E+00  0.0000000000E+00
                       6.5106000000E+00  6.5106000000E+00  0.0000000000E+00
                       0.0000000000E+00  0.0000000000E+00  2.9625700000E+01
                       4.3404000000E+00  4.3404000000E+00  2.2273300000E+01
                       4.3404000000E+00  6.6420000000E-01  2.5949500000E+01
                       6.6420000000E-01  4.3404000000E+00  2.5949500000E+01
             xred      0.0000000000E+00  0.0000000000E+00  0.0000000000E+00
                       5.0000000000E-01  5.0000000000E-01  9.4364015027E-02
                       7.5000000000E-01  2.5000000000E-01  0.0000000000E+00
                       2.5000000000E-01  7.5000000000E-01  0.0000000000E+00
                       2.5000000000E-01  2.5000000000E-01  0.0000000000E+00
                       7.5000000000E-01  7.5000000000E-01  0.0000000000E+00
                       0.0000000000E+00  0.0000000000E+00  1.0000000000E+00
                       5.0000000000E-01  5.0000000000E-01  7.5182358560E-01
                       5.0000000000E-01  7.6513685375E-02  8.7591179280E-01
                       7.6513685375E-02  5.0000000000E-01  8.7591179280E-01
            znucl       22.00000    8.00000   46.00000

================================================================================

 chkinp: Checking input parameters for consistency.
