
.Version 8.6.3 of ABINIT 
.(sequential version, prepared for a x86_64_linux_gnu5.4 computer) 

.Copyright (C) 1998-2017 ABINIT group . 
 ABINIT comes with ABSOLUTELY NO WARRANTY.
 It is free software, and you are welcome to redistribute it
 under certain conditions (GNU General Public License,
 see ~abinit/COPYING or http://www.gnu.org/copyleft/gpl.txt).

 ABINIT is a project of the Universite Catholique de Louvain,
 Corning Inc. and other collaborators, see ~abinit/doc/developers/contributors.txt .
 Please read ~abinit/doc/users/acknowledgments.html for suggested
 acknowledgments of the ABINIT effort.
 For more information, see https://www.abinit.org .

.Starting date : Sat 21 Apr 2018.
- ( at 00h54 )
  
- input  file    -> sim3geomRed.in
- output file    -> sim3geomRed.out
- root for input  files -> sim3geomRed_i
- root for output files -> sim3geomRed_o


 Symmetries : space group Cm (#  8); Bravais mC (1-face-center monocl.)
================================================================================
 Values of the parameters that define the memory need of the present run
     intxc =       0    ionmov =       2      iscf =       7    lmnmax =       6
     lnmax =       6     mgfft =     135  mpssoang =       3    mqgrid =    6040
     natom =      10  nloc_mem =       1    nspden =       1   nspinor =       1
    nsppol =       1      nsym =       2    n1xccc =    2501    ntypat =       3
    occopt =       1   xclevel =       1
-    mband =          54        mffmem =           1         mkmem =          16
       mpw =        5460          nfft =      121500          nkpt =          16
================================================================================
P This job should need less than                     112.286 Mbytes of memory.
  Rough estimation (10% accuracy) of disk space for files :
_ WF disk file :     71.984 Mbytes ; DEN or POT disk file :      0.929 Mbytes.
================================================================================

--------------------------------------------------------------------------------
------------- Echo of variables that govern the present computation ------------
--------------------------------------------------------------------------------
-
- outvars: echo of selected default values                                      
-   iomode0 =  0 , fftalg0 =112 , wfoptalg0 =  0
-
- outvars: echo of global parameters not present in the input file              
-  max_nthreads =    0
-
 -outvars: echo values of preprocessed input variables --------
            acell      8.6808000000E+00  8.6808000000E+00  4.0000000000E+01 Bohr
              amu      4.78800000E+01  1.59994000E+01  1.06420000E+02
           diemac      1.20000000E+01
          dilatmx      1.50000000E+00
             ecut      5.00000000E+00 Hartree
           ecutsm      5.00000000E-01 Hartree
-          fftalg         112
           getwfk          -1
           ionmov           2
           istwfk        0    0    0    0    0    7    0    0    5    0
                         0    0    0    6    0    4
              kpt     -1.25000000E-01  0.00000000E+00  0.00000000E+00
                      -2.50000000E-01  5.00000000E-01  0.00000000E+00
                      -1.25000000E-01  5.00000000E-01  5.00000000E-01
                      -3.75000000E-01  0.00000000E+00  0.00000000E+00
                      -2.50000000E-01  0.00000000E+00  5.00000000E-01
                       5.00000000E-01  5.00000000E-01  0.00000000E+00
                      -3.75000000E-01  5.00000000E-01  5.00000000E-01
                       3.75000000E-01  0.00000000E+00  0.00000000E+00
                       5.00000000E-01  0.00000000E+00  5.00000000E-01
                       2.50000000E-01  5.00000000E-01  0.00000000E+00
                       3.75000000E-01  5.00000000E-01  5.00000000E-01
                       1.25000000E-01  0.00000000E+00  0.00000000E+00
                       2.50000000E-01  0.00000000E+00  5.00000000E-01
                       0.00000000E+00  5.00000000E-01  0.00000000E+00
                       1.25000000E-01  5.00000000E-01  5.00000000E-01
                       0.00000000E+00  0.00000000E+00  5.00000000E-01
           kptopt           3
         kptrlatt        4   -1    1      0    2    0     -4   -1    1
          kptrlen      1.73616000E+01
P           mkmem          16
            natom          10
            nband          54
            ngfft          30      30     135
             nkpt          16
            nstep          15
             nsym           2
            ntime          10
           ntypat           3
              occ      2.000000  2.000000  2.000000  2.000000  2.000000  2.000000
                       2.000000  2.000000  2.000000  2.000000  2.000000  2.000000
                       2.000000  2.000000  2.000000  2.000000  2.000000  2.000000
                       2.000000  2.000000  2.000000  2.000000  2.000000  2.000000
                       2.000000  2.000000  2.000000  2.000000  2.000000  2.000000
                       2.000000  2.000000  2.000000  2.000000  2.000000  2.000000
                       2.000000  2.000000  2.000000  2.000000  2.000000  2.000000
                       2.000000  2.000000  2.000000  2.000000  2.000000  2.000000
                       2.000000  2.000000  2.000000  2.000000  0.000000  0.000000
          optcell           3
           shiftk      5.00000000E-01  0.00000000E+00  5.00000000E-01
          spgroup           8
           symrel      1  0  0   0  1  0   0  0  1       0  1  0   1  0  0   0  0  1
           toldfe      1.00000000E+01 Hartree
            typat      1  1  2  2  2  2  3  3  3  3
              wtk        0.06250    0.06250    0.06250    0.06250    0.06250    0.06250
                         0.06250    0.06250    0.06250    0.06250    0.06250    0.06250
                         0.06250    0.06250    0.06250    0.06250
           xangst      0.0000000000E+00  0.0000000000E+00  0.0000000000E+00
                       2.2968407562E+00  2.2968407562E+00  1.4793678043E+00
                       3.4452611342E+00  1.1484203781E+00  0.0000000000E+00
                       1.1484203781E+00  3.4452611342E+00  0.0000000000E+00
                       1.1484203781E+00  1.1484203781E+00  0.0000000000E+00
                       3.4452611342E+00  3.4452611342E+00  0.0000000000E+00
                       0.0000000000E+00  0.0000000000E+00  1.5677245229E+01
                       2.2968407562E+00  2.2968407562E+00  1.1786522720E+01
                       2.2968407562E+00  3.5147950195E-01  1.3731883974E+01
                       3.5147950195E-01  2.2968407562E+00  1.3731883974E+01
            xcart      0.0000000000E+00  0.0000000000E+00  0.0000000000E+00
                       4.3404000000E+00  4.3404000000E+00  2.7956000000E+00
                       6.5106000000E+00  2.1702000000E+00  0.0000000000E+00
                       2.1702000000E+00  6.5106000000E+00  0.0000000000E+00
                       2.1702000000E+00  2.1702000000E+00  0.0000000000E+00
                       6.5106000000E+00  6.5106000000E+00  0.0000000000E+00
                       0.0000000000E+00  0.0000000000E+00  2.9625700000E+01
                       4.3404000000E+00  4.3404000000E+00  2.2273300000E+01
                       4.3404000000E+00  6.6420000000E-01  2.5949500000E+01
                       6.6420000000E-01  4.3404000000E+00  2.5949500000E+01
             xred      0.0000000000E+00  0.0000000000E+00  0.0000000000E+00
                       5.0000000000E-01  5.0000000000E-01  6.9890000000E-02
                       7.5000000000E-01  2.5000000000E-01  0.0000000000E+00
                       2.5000000000E-01  7.5000000000E-01  0.0000000000E+00
                       2.5000000000E-01  2.5000000000E-01  0.0000000000E+00
                       7.5000000000E-01  7.5000000000E-01  0.0000000000E+00
                       0.0000000000E+00  0.0000000000E+00  7.4064250000E-01
                       5.0000000000E-01  5.0000000000E-01  5.5683250000E-01
                       5.0000000000E-01  7.6513685375E-02  6.4873750000E-01
                       7.6513685375E-02  5.0000000000E-01  6.4873750000E-01
            znucl       22.00000    8.00000   46.00000

================================================================================

 chkinp: Checking input parameters for consistency.

================================================================================
== DATASET  1 ==================================================================
-   nproc =    1

 Exchange-correlation functional for the present dataset will be:
  LDA: new Teter (4/93) with spin-polarized option - ixc=1
 Citation for XC functional:
  S. Goedecker, M. Teter, J. Huetter, PRB 54, 1703 (1996)

 Real(R)+Recip(G) space primitive vectors, cartesian coordinates (Bohr,Bohr^-1):
 R(1)=  8.6808000  0.0000000  0.0000000  G(1)=  0.1151968  0.0000000  0.0000000
 R(2)=  0.0000000  8.6808000  0.0000000  G(2)=  0.0000000  0.1151968  0.0000000
 R(3)=  0.0000000  0.0000000 40.0000000  G(3)=  0.0000000  0.0000000  0.0250000
 Unit cell volume ucvol=  3.0142515E+03 bohr^3
 Angles (23,13,12)=  9.00000000E+01  9.00000000E+01  9.00000000E+01 degrees

 getcut: wavevector=  0.0000  0.0000  0.0000  ngfft=  30  30 135
         ecut(hartree)=     11.250   => boxcut(ratio)=   2.21872

 getcut : COMMENT -
  Note that boxcut > 2.2 ; recall that boxcut=Gcut(box)/Gcut(sphere) = 2
  is sufficient for exact treatment of convolution.
  Such a large boxcut is a waste : you could raise ecut
  e.g. ecut=   13.845204 Hartrees makes boxcut=2


--- Pseudopotential description ------------------------------------------------
- pspini: atom type   1  psp file is ../../../Psps_for_tests/22ti.pspnc
- pspatm: opening atomic psp file    ../../../Psps_for_tests/22ti.pspnc
-  Troullier-Martins psp for element  Ti        Thu Oct 27 17:33:40 EDT 1994
- 22.00000   4.00000    940714                znucl, zion, pspdat
    1    1    2    0      2001   0.00000      pspcod,pspxc,lmax,lloc,mmax,r2well
    0   5.166   8.509    0   2.4203472        l,e99.0,e99.9,nproj,rcpsp
   0.00000000   0.00000000   0.00000000   0.00000000     rms, ekb1, ekb2, epsatm
    1   2.285   3.944    1   2.9934301        l,e99.0,e99.9,nproj,rcpsp
   0.00000000   0.00000000   0.00000000   0.00000000     rms, ekb1, ekb2, epsatm
    2  20.947  27.069    1   1.9326638        l,e99.0,e99.9,nproj,rcpsp
   0.00000000   0.00000000   0.00000000   0.00000000     rms, ekb1, ekb2, epsatm
    2.82741504495369    0.09256629068341    1.82586447305099   rchrg,fchrg,qchrg
  pspatm : epsatm=   66.67453488
         --- l  ekb(1:nproj) -->
             1    0.915537
             2   -8.015692
 pspatm: atomic psp has been read  and splines computed

- pspini: atom type   2  psp file is ../../../Psps_for_tests/8o.pspnc
- pspatm: opening atomic psp file    ../../../Psps_for_tests/8o.pspnc
-  Troullier-Martins psp for element  O         Thu Oct 27 17:29:57 EDT 1994
-  8.00000   6.00000    940714                znucl, zion, pspdat
    1    1    1    1      2001   0.00000      pspcod,pspxc,lmax,lloc,mmax,r2well
    0   5.480  16.893    1   1.4482335        l,e99.0,e99.9,nproj,rcpsp
   0.00000000   0.00000000   0.00000000   0.00000000     rms, ekb1, ekb2, epsatm
    1  20.911  28.075    0   1.4482335        l,e99.0,e99.9,nproj,rcpsp
   0.00000000   0.00000000   0.00000000   0.00000000     rms, ekb1, ekb2, epsatm
    0.56990156784787    3.95561236318184    0.63894027514378   rchrg,fchrg,qchrg
  pspatm : epsatm=    1.57752239
         --- l  ekb(1:nproj) -->
             0    5.670783
 pspatm: atomic psp has been read  and splines computed

- pspini: atom type   3  psp file is ../../../Psps_for_tests/Pd.psp8
- pspatm: opening atomic psp file    ../../../Psps_for_tests/Pd.psp8
- Pd    ONCVPSP-3.2.3.1  r_core=   1.41052   1.46191   1.55175
- 46.00000  18.00000    170510                znucl, zion, pspdat
    8   11    2    4       600   0.00000      pspcod,pspxc,lmax,lloc,mmax,r2well
    5.99000000000000    7.00000000000000    0.00000000000000   rchrg,fchrg,qchrg
     nproj     2     2     2
     extension_switch     1
  pspatm : epsatm=   26.09224486
         --- l  ekb(1:nproj) -->
             0    7.845850   -2.282160
             1    3.261104   -0.686948
             2   -1.134855   -0.401224
 pspatm: atomic psp has been read  and splines computed

   2.53789264E+04                                ecore*ucvol(ha*bohr**3)
--------------------------------------------------------------------------------

_setup2: Arith. and geom. avg. npw (full set) are    5423.625    5423.547

================================================================================

=== [ionmov= 2] Broyden-Fletcher-Goldfard-Shanno method (forces)            
================================================================================

--- Iteration: ( 1/10) Internal Cycle: (1/1)
--------------------------------------------------------------------------------

---SELF-CONSISTENT-FIELD CONVERGENCE--------------------------------------------

     iter   Etot(hartree)      deltaE(h)  residm     vres2
 ETOT  1  -459.73249328305    -4.597E+02 3.907E-02 2.534E+06
 ETOT  2  -244.46476485454     2.153E+02 1.945E-01 1.160E+07
 ETOT  3  -540.45955654630    -2.960E+02 2.887E-01 2.998E+05
 ETOT  4  -546.20503792904    -5.745E+00 1.112E-01 6.235E+04
 ETOT  5  -551.17415557756    -4.969E+00 4.727E-02 5.189E+04

 At SCF step    5, etot is converged : 
  for the second time, diff in etot=  4.969E+00 < toldfe=  1.000E+01

 Cartesian components of stress tensor (hartree/bohr^3)
  sigma(1 1)= -3.53357334E-03  sigma(3 2)=  5.50258786E-05
  sigma(2 2)= -3.53357334E-03  sigma(3 1)=  5.50258786E-05
  sigma(3 3)= -2.20825215E-03  sigma(2 1)=  2.08546371E-04

 Integrated electronic density in atomic spheres:
 ------------------------------------------------
 Atom  Sphere_radius  Integrated_density
    1        2.00000          1.92503998
    2        2.00000          0.33539262
    3        2.00000          6.13863397
    4        2.00000          6.13863397
    5        2.00000          6.14119675
    6        2.00000          6.11750828
    7        2.00000         13.89793425
    8        2.00000         13.64442737
    9        2.00000         13.66899247
   10        2.00000         13.66899247

---OUTPUT-----------------------------------------------------------------------

 Cartesian coordinates (xcart) [bohr]
  0.00000000000000E+00  0.00000000000000E+00  0.00000000000000E+00
  4.34040000000000E+00  4.34040000000000E+00  2.79560000000000E+00
  6.51060000000000E+00  2.17020000000000E+00  0.00000000000000E+00
  2.17020000000000E+00  6.51060000000000E+00  0.00000000000000E+00
  2.17020000000000E+00  2.17020000000000E+00  0.00000000000000E+00
  6.51060000000000E+00  6.51060000000000E+00  0.00000000000000E+00
  0.00000000000000E+00  0.00000000000000E+00  2.96257000000000E+01
  4.34040000000000E+00  4.34040000000000E+00  2.22733000000000E+01
  4.34040000000000E+00  6.64200000000000E-01  2.59495000000000E+01
  6.64200000000000E-01  4.34040000000000E+00  2.59495000000000E+01
 Reduced coordinates (xred)
  0.00000000000000E+00  0.00000000000000E+00  0.00000000000000E+00
  5.00000000000000E-01  5.00000000000000E-01  6.98900000000000E-02
  7.50000000000000E-01  2.50000000000000E-01  0.00000000000000E+00
  2.50000000000000E-01  7.50000000000000E-01  0.00000000000000E+00
  2.50000000000000E-01  2.50000000000000E-01  0.00000000000000E+00
  7.50000000000000E-01  7.50000000000000E-01  0.00000000000000E+00
  0.00000000000000E+00  0.00000000000000E+00  7.40642500000000E-01
  5.00000000000000E-01  5.00000000000000E-01  5.56832500000000E-01
  5.00000000000000E-01  7.65136853746198E-02  6.48737500000000E-01
  7.65136853746198E-02  5.00000000000000E-01  6.48737500000000E-01
 Cartesian forces (fcart) [Ha/bohr]; max,rms= 7.89443E-01 3.80869E-01 (free atoms)
  5.86592665743602E-03  5.86592665743602E-03  7.89443063051138E-01
 -3.85640268044820E-03 -3.85640268044820E-03  6.58826843744745E-01
 -5.84363869924603E-01  5.81538237155325E-01 -3.61159168672660E-01
  5.81538237155325E-01 -5.84363869924603E-01 -3.61159168672660E-01
  5.85683931496725E-01  5.85683931496725E-01 -3.51850990461380E-01
 -5.86546723802502E-01 -5.86546723802502E-01 -3.60078958279804E-01
 -1.89760746308114E-02 -1.89760746308114E-02 -1.61678094299682E-02
  2.16487862950770E-02  2.16487862950770E-02  1.62314007943795E-01
  3.68452471094942E-02 -3.78390576756926E-02 -8.00839096116030E-02
 -3.78390576756926E-02  3.68452471094942E-02 -8.00839096116030E-02
 Reduced forces (fred)
 -5.09209361278706E-02 -5.09209361278706E-02 -3.15777225220455E+01
  3.34766603884348E-02  3.34766603884347E-02 -2.63530737497898E+01
  5.07274588204149E+00 -5.04821712909794E+00  1.44463667469064E+01
 -5.04821712909794E+00  5.07274588204149E+00  1.44463667469064E+01
 -5.08420507253677E+00 -5.08420507253677E+00  1.40740396184552E+01
  5.09169479998476E+00  5.09169479998476E+00  1.44031583311922E+01
  1.64727508655148E-01  1.64727508655148E-01  6.46712377198729E-01
 -1.87928784070304E-01 -1.87928784070304E-01 -6.49256031775179E+00
 -3.19846221108097E-01  3.28473291871153E-01  3.20335638446412E+00
  3.28473291871153E-01 -3.19846221108097E-01  3.20335638446412E+00
 Scale of Primitive Cell (acell) [bohr]
  8.68080000000000E+00  8.68080000000000E+00  4.00000000000000E+01
 Real space primitive translations (rprimd) [bohr]
  8.68080000000000E+00  0.00000000000000E+00  0.00000000000000E+00
  0.00000000000000E+00  8.68080000000000E+00  0.00000000000000E+00
  0.00000000000000E+00  0.00000000000000E+00  4.00000000000000E+01
 Unitary Cell Volume (ucvol) [Bohr^3]=  3.01425154560000E+03
 Angles (23,13,12)= [degrees]
  9.00000000000000E+01  9.00000000000000E+01  9.00000000000000E+01
 Lengths [Bohr]
  8.68080000000000E+00  8.68080000000000E+00  4.00000000000000E+01
 Stress tensor in cartesian coordinates (strten) [Ha/bohr^3]
 -3.53357334463069E-03  2.08546371137012E-04  5.50258785672815E-05
  2.08546371137012E-04 -3.53357334463069E-03  5.50258785672815E-05
  5.50258785672815E-05  5.50258785672815E-05 -2.20825214861043E-03
 Total energy (etotal) [Ha]= -5.51174155577562E+02

--- Iteration: ( 2/10) Internal Cycle: (1/1)
--------------------------------------------------------------------------------

---SELF-CONSISTENT-FIELD CONVERGENCE--------------------------------------------

     iter   Etot(hartree)      deltaE(h)  residm     vres2
 ETOT  1  -116.47145874777    -1.165E+02 3.930E+02 1.408E+07
 ETOT  2   58.789411831659     1.753E+02 1.989E+00 2.333E+07
 ETOT  3  -264.67977356959    -3.235E+02 4.585E-01 1.026E+07
 ETOT  4  -542.89111299745    -2.782E+02 2.685E-01 1.899E+05
 ETOT  5  -483.67066963415     5.922E+01 1.004E-01 2.483E+06
 ETOT  6  -551.71797508128    -6.805E+01 1.464E-01 1.761E+04
 ETOT  7  -536.53762019381     1.518E+01 6.481E-02 6.409E+05
 ETOT  8  -547.93606518911    -1.140E+01 1.687E-02 2.217E+05
 ETOT  9  -552.29851891064    -4.362E+00 3.566E-02 4.670E+04
 ETOT 10  -549.82444106368     2.474E+00 1.260E-02 1.340E+05

 At SCF step   10, etot is converged : 
  for the second time, diff in etot=  2.474E+00 < toldfe=  1.000E+01

 Cartesian components of stress tensor (hartree/bohr^3)
  sigma(1 1)=  3.75814643E-04  sigma(3 2)=  6.15598884E-05
  sigma(2 2)=  3.75814643E-04  sigma(3 1)=  6.15598884E-05
  sigma(3 3)=  2.22938059E-03  sigma(2 1)= -1.06664878E-04

 Integrated electronic density in atomic spheres:
 ------------------------------------------------
 Atom  Sphere_radius  Integrated_density
    1        2.00000          0.70975076
    2        2.00000          0.62596662
    3        2.00000          6.07969907
    4        2.00000          6.07969907
    5        2.00000          6.09684102
    6        2.00000          6.07556460
    7        2.00000         11.94762466
    8        2.00000         12.53760043
    9        2.00000         13.32431685
   10        2.00000         13.32431685

---OUTPUT-----------------------------------------------------------------------

 Cartesian coordinates (xcart) [bohr]
  3.26465095263700E-03  3.26465095263700E-03  7.68660048684599E-01
  4.32936916474591E+00  4.32936916474591E+00  3.33501313457640E+00
  5.97294500015296E+00  2.71588592452457E+00 -3.80326493303353E-01
  2.71588592452457E+00  5.97294500015296E+00 -3.80326493303353E-01
  2.75973608536342E+00  2.75973608536342E+00 -3.60807046797654E-01
  5.93102528996168E+00  5.93102528996168E+00 -3.89743491795214E-01
 -1.16775058796623E-01 -1.16775058796623E-01  2.88316049728817E+01
  4.29221709863078E+00  4.29221709863078E+00  2.18172613501751E+01
  4.34303389954119E+00  4.94597964592454E-01  2.51731193744052E+01
  4.94597964592454E-01  4.34303389954119E+00  2.51731193744052E+01
 Reduced coordinates (xred)
  6.75735722218694E-04  6.75735722218694E-04  1.97360765762785E-02
  4.99555754921154E-01  4.99555754921154E-01  8.63606710936186E-02
  6.82683177826398E-01  3.16991318444766E-01 -9.02897921681650E-03
  3.16991318444766E-01  6.82683177826398E-01 -9.02897921681650E-03
  3.17468888984509E-01  3.17468888984509E-01 -8.79627476153449E-03
  6.82431720140713E-01  6.82431720140713E-01 -9.00197395699510E-03
 -2.18598224020959E-03 -2.18598224020959E-03  7.40238304764251E-01
  5.02493869953815E-01  5.02493869953815E-01  5.60890350198595E-01
  5.04244452943219E-01  7.21547486780374E-02  6.46735402259710E-01
  7.21547486780374E-02  5.04244452943219E-01  6.46735402259710E-01
 Cartesian forces (fcart) [Ha/bohr]; max,rms= 6.92146E-01 1.69330E-01 (free atoms)
 -4.31752498361639E-03 -4.31752498361639E-03 -6.92145683605116E-01
  5.26570875990834E-03  5.26570875990834E-03 -1.16821042649134E-01
  1.69616448157494E-01 -1.65935815584423E-01  1.70246928323753E-01
 -1.65935815584423E-01  1.69616448157494E-01  1.70246928323753E-01
 -1.56839233233041E-01 -1.56839233233041E-01  1.80534021047198E-01
  1.56696804983415E-01  1.56696804983415E-01  1.82638050634912E-01
  5.44916945328109E-04  5.44916945328109E-04 -6.27474572637912E-02
 -4.46488239963581E-02 -4.46488239963581E-02  1.36002307072080E-01
 -1.19772825569685E-02  5.15948015082605E-02  1.60229740581724E-02
  5.15948015082605E-02 -1.19772825569685E-02  1.60229740581724E-02
 Reduced forces (fred)
  1.76745069685094E-02  1.76745069685094E-02  2.69571835431997E+01
 -4.91040798012528E-02 -4.91040798012528E-02  4.55144412022876E+00
 -1.50541993848736E+00  1.48319880685831E+00 -6.63044714465844E+00
  1.48319880685831E+00 -1.50541993848736E+00 -6.63044714465844E+00
  1.36799441403981E+00  1.36799441403981E+00 -7.07303924111762E+00
 -1.35634580928200E+00 -1.35634580928200E+00 -7.07215694418999E+00
 -6.53370585412822E-03 -6.53370585412822E-03  2.44408940948461E+00
  3.91864625171188E-01  3.91864625171188E-01 -5.30893806424502E+00
  1.11440105715611E-01 -4.54768925328696E-01 -6.18844267021770E-01
 -4.54768925328696E-01  1.11440105715611E-01 -6.18844267021770E-01
 Scale of Primitive Cell (acell) [bohr]
  8.79863804900086E+00  8.79863804900086E+00  3.89493641064029E+01
 Real space primitive translations (rprimd) [bohr]
  8.79792053018332E+00 -1.08646548274270E-01 -2.86668702960386E-02
 -1.08646548274270E-01  8.79792053018332E+00 -2.86668702960386E-02
 -1.32093218579111E-01 -1.32093218579111E-01  3.89489161217146E+01
 Unitary Cell Volume (ucvol) [Bohr^3]=  3.01425154560000E+03
 Angles (23,13,12)= [degrees]
  9.03785743318641E+01  9.03785743318641E+01  9.14144092014990E+01
 Lengths [Bohr]
  8.79863804900086E+00  8.79863804900086E+00  3.89493641064029E+01
 Stress tensor in cartesian coordinates (strten) [Ha/bohr^3]
  3.75814643409369E-04 -1.06664878191937E-04  6.15598883911253E-05
 -1.06664878191937E-04  3.75814643409368E-04  6.15598883911253E-05
  6.15598883911253E-05  6.15598883911253E-05  2.22938058908405E-03
 Total energy (etotal) [Ha]= -5.49824441063680E+02

 Difference of energy with previous step (new-old):
           Absolute (Ha)= 1.34971E+00
           Relative     = 2.45180E-03

--- Iteration: ( 3/10) Internal Cycle: (1/1)
--------------------------------------------------------------------------------

---SELF-CONSISTENT-FIELD CONVERGENCE--------------------------------------------

     iter   Etot(hartree)      deltaE(h)  residm     vres2
