
.Version 8.6.3 of ABINIT 
.(sequential version, prepared for a x86_64_linux_gnu5.4 computer) 

.Copyright (C) 1998-2017 ABINIT group . 
 ABINIT comes with ABSOLUTELY NO WARRANTY.
 It is free software, and you are welcome to redistribute it
 under certain conditions (GNU General Public License,
 see ~abinit/COPYING or http://www.gnu.org/copyleft/gpl.txt).

 ABINIT is a project of the Universite Catholique de Louvain,
 Corning Inc. and other collaborators, see ~abinit/doc/developers/contributors.txt .
 Please read ~abinit/doc/users/acknowledgments.html for suggested
 acknowledgments of the ABINIT effort.
 For more information, see https://www.abinit.org .

.Starting date : Mon 23 Apr 2018.
- ( at 01h20 )
  
- input  file    -> DOSwithoutGeom2Layer.in
- output file    -> DOSwithoutGeom2Layer.out
- root for input  files -> DOSwithoutGeom2Layer_i
- root for output files -> DOSwithoutGeom2Layer_o


 Symmetries : space group P1 (#  1); Bravais aP (primitive triclinic)
================================================================================
 Values of the parameters that define the memory need of the present run
     intxc =       0    ionmov =       0      iscf =       7    lmnmax =       6
     lnmax =       6     mgfft =     320  mpssoang =       3    mqgrid =   15692
     natom =      20  nloc_mem =       1    nspden =       1   nspinor =       1
    nsppol =       1      nsym =       1    n1xccc =    2501    ntypat =       3
    occopt =       1   xclevel =       2
-    mband =         123        mffmem =           1         mkmem =           2
       mpw =       75364          nfft =     1310720          nkpt =           2
================================================================================
P This job should need less than                     681.793 Mbytes of memory.
  Rough estimation (10% accuracy) of disk space for files :
_ WF disk file :    282.893 Mbytes ; DEN or POT disk file :     10.002 Mbytes.
================================================================================

--------------------------------------------------------------------------------
------------- Echo of variables that govern the present computation ------------
--------------------------------------------------------------------------------
-
- outvars: echo of selected default values                                      
-   iomode0 =  0 , fftalg0 =112 , wfoptalg0 =  0
-
- outvars: echo of global parameters not present in the input file              
-  max_nthreads =    0
-
 -outvars: echo values of preprocessed input variables --------
            acell      8.6808000000E+00  8.6808000000E+00  4.5000000000E+01 Bohr
              amu      4.78800000E+01  1.59994000E+01  1.06420000E+02
           diemac      1.20000000E+01
             ecut      6.00000000E+01 Hartree
-          fftalg         112
              ixc          11
              kpt      1.25000000E-01  5.00000000E-01  5.00000000E-01
                       3.75000000E-01  5.00000000E-01  5.00000000E-01
           kptopt           2
         kptrlatt        4    0    0      0    1    0      0    0    1
          kptrlen      8.68080000E+00
P           mkmem           2
            natom          20
            nband         123
            ngfft          64      64     320
             nkpt           2
             nsym           1
           ntypat           3
              occ      2.000000  2.000000  2.000000  2.000000  2.000000  2.000000
                       2.000000  2.000000  2.000000  2.000000  2.000000  2.000000
                       2.000000  2.000000  2.000000  2.000000  2.000000  2.000000
                       2.000000  2.000000  2.000000  2.000000  2.000000  2.000000
                       2.000000  2.000000  2.000000  2.000000  2.000000  2.000000
                       2.000000  2.000000  2.000000  2.000000  2.000000  2.000000
                       2.000000  2.000000  2.000000  2.000000  2.000000  2.000000
                       2.000000  2.000000  2.000000  2.000000  2.000000  2.000000
                       2.000000  2.000000  2.000000  2.000000  2.000000  2.000000
                       2.000000  2.000000  2.000000  2.000000  2.000000  2.000000
                       2.000000  2.000000  2.000000  2.000000  2.000000  2.000000
                       2.000000  2.000000  2.000000  2.000000  2.000000  2.000000
                       2.000000  2.000000  2.000000  2.000000  2.000000  2.000000
                       2.000000  2.000000  2.000000  2.000000  2.000000  2.000000
                       2.000000  2.000000  2.000000  2.000000  2.000000  2.000000
                       2.000000  2.000000  2.000000  2.000000  2.000000  2.000000
                       2.000000  2.000000  2.000000  2.000000  2.000000  2.000000
                       2.000000  2.000000  2.000000  2.000000  2.000000  2.000000
                       2.000000  2.000000  2.000000  2.000000  2.000000  2.000000
                       2.000000  2.000000  2.000000  2.000000  2.000000  2.000000
                       0.000000  0.000000  0.000000
           prtdos           2
           shiftk      5.00000000E-01  5.00000000E-01  5.00000000E-01
          spgroup           1
           toldfe      1.00000000E-02 Hartree
            typat      1  1  1  1  2  2  2  2  2  2  2  2  3  3  3  3  3  3  3  3
              wtk        0.50000    0.50000
           xangst      0.0000000000E+00  0.0000000000E+00  0.0000000000E+00
                       0.0000000000E+00  0.0000000000E+00  4.5936815123E+00
                       2.2968407562E+00  1.4793678043E+00  2.2968407562E+00
                       2.2968407562E+00  1.4793678043E+00  6.8905222685E+00
                       3.9876836484E+01  0.0000000000E+00  1.4240158683E+00
                       3.9876836484E+01  0.0000000000E+00  6.0176973806E+00
                       3.1696656440E+00  0.0000000000E+00  3.1696656440E+00
                       3.1696656440E+00  0.0000000000E+00  7.7633471563E+00
                       8.7282488785E-01  1.4793678043E+00  3.7208566245E+00
                       8.7282488785E-01  1.4793678043E+00  8.3145381368E+00
                       3.7208566245E+00  1.4793678043E+00  8.7282488785E-01
                       3.7208566245E+00  1.4793678043E+00  5.4665064002E+00
                       8.7282488785E-01  0.0000000000E+00  1.2097837672E+01
                       8.7282488785E-01  0.0000000000E+00  1.5988560180E+01
                       1.9453612542E+00  1.3755961537E+00  1.3473433826E+01
                       1.9453612542E+00  1.3755961537E+00  1.7364156334E+01
                       1.9453612542E+00 -1.3755961537E+00  1.3473433826E+01
                       1.9453612542E+00 -1.3755961537E+00  1.7364156334E+01
                       0.0000000000E+00  0.0000000000E+00  1.4848977062E+01
                       0.0000000000E+00  0.0000000000E+00  1.8739699570E+01
            xcart      0.0000000000E+00  0.0000000000E+00  0.0000000000E+00
                       0.0000000000E+00  0.0000000000E+00  8.6808000000E+00
                       4.3404000000E+00  2.7956000000E+00  4.3404000000E+00
                       4.3404000000E+00  2.7956000000E+00  1.3021200000E+01
                       7.5356300000E+01  0.0000000000E+00  2.6910000000E+00
                       7.5356300000E+01  0.0000000000E+00  1.1371800000E+01
                       5.9898000000E+00  0.0000000000E+00  5.9898000000E+00
                       5.9898000000E+00  0.0000000000E+00  1.4670600000E+01
                       1.6494000000E+00  2.7956000000E+00  7.0314000000E+00
                       1.6494000000E+00  2.7956000000E+00  1.5712200000E+01
                       7.0314000000E+00  2.7956000000E+00  1.6494000000E+00
                       7.0314000000E+00  2.7956000000E+00  1.0330200000E+01
                       1.6494000000E+00  0.0000000000E+00  2.2861600000E+01
                       1.6494000000E+00  0.0000000000E+00  3.0214000000E+01
                       3.6762000000E+00  2.5995000000E+00  2.5461100000E+01
                       3.6762000000E+00  2.5995000000E+00  3.2813500000E+01
                       3.6762000000E+00 -2.5995000000E+00  2.5461100000E+01
                       3.6762000000E+00 -2.5995000000E+00  3.2813500000E+01
                       0.0000000000E+00  0.0000000000E+00  2.8060500000E+01
                       0.0000000000E+00  0.0000000000E+00  3.5412900000E+01
             xred      0.0000000000E+00  0.0000000000E+00  0.0000000000E+00
                       0.0000000000E+00  0.0000000000E+00  1.9290666667E-01
                       5.0000000000E-01  3.2204405124E-01  9.6453333333E-02
                       5.0000000000E-01  3.2204405124E-01  2.8936000000E-01
                       8.6808013086E+00  0.0000000000E+00  5.9800000000E-02
                       8.6808013086E+00  0.0000000000E+00  2.5270666667E-01
                       6.9000552944E-01  0.0000000000E+00  1.3310666667E-01
                       6.9000552944E-01  0.0000000000E+00  3.2601333333E-01
                       1.9000552944E-01  3.2204405124E-01  1.5625333333E-01
                       1.9000552944E-01  3.2204405124E-01  3.4916000000E-01
                       8.0999447056E-01  3.2204405124E-01  3.6653333333E-02
                       8.0999447056E-01  3.2204405124E-01  2.2956000000E-01
                       1.9000552944E-01  0.0000000000E+00  5.0803555556E-01
                       1.9000552944E-01  0.0000000000E+00  6.7142222222E-01
                       4.2348631463E-01  2.9945396738E-01  5.6580222222E-01
                       4.2348631463E-01  2.9945396738E-01  7.2918888889E-01
                       4.2348631463E-01 -2.9945396738E-01  5.6580222222E-01
                       4.2348631463E-01 -2.9945396738E-01  7.2918888889E-01
                       0.0000000000E+00  0.0000000000E+00  6.2356666667E-01
                       0.0000000000E+00  0.0000000000E+00  7.8695333333E-01
            znucl       22.00000    8.00000   46.00000

================================================================================

 chkinp: Checking input parameters for consistency.

================================================================================
== DATASET  1 ==================================================================
-   nproc =    1

 Exchange-correlation functional for the present dataset will be:
  GGA: Perdew-Burke-Ernzerhof functional - ixc=11
 Citation for XC functional:
  J.P.Perdew, K.Burke, M.Ernzerhof, PRL 77, 3865 (1996)

 Real(R)+Recip(G) space primitive vectors, cartesian coordinates (Bohr,Bohr^-1):
 R(1)=  8.6808000  0.0000000  0.0000000  G(1)=  0.1151968  0.0000000  0.0000000
 R(2)=  0.0000000  8.6808000  0.0000000  G(2)=  0.0000000  0.1151968  0.0000000
 R(3)=  0.0000000  0.0000000 45.0000000  G(3)=  0.0000000  0.0000000  0.0222222
 Unit cell volume ucvol=  3.3910330E+03 bohr^3
 Angles (23,13,12)=  9.00000000E+01  9.00000000E+01  9.00000000E+01 degrees

 getcut: wavevector=  0.0000  0.0000  0.0000  ngfft=  64  64 320
         ecut(hartree)=     60.000   => boxcut(ratio)=   2.03937

--- Pseudopotential description ------------------------------------------------
- pspini: atom type   1  psp file is ../../../Psps_for_tests/Ti.psp8
- pspatm: opening atomic psp file    ../../../Psps_for_tests/Ti.psp8
- Ti    ONCVPSP-3.2.3.1  r_core=   1.35825   1.31050   1.66360
- 22.00000  12.00000    170504                znucl, zion, pspdat
    8   11    2    4       600   0.00000      pspcod,pspxc,lmax,lloc,mmax,r2well
    5.99000000000000    2.50000000000000    0.00000000000000   rchrg,fchrg,qchrg
     nproj     2     2     2
     extension_switch     1
  pspatm : epsatm=   14.68144390
         --- l  ekb(1:nproj) -->
             0   11.362348    1.263639
             1    1.975402   -0.084666
             2   -5.186090   -1.477451
 pspatm: atomic psp has been read  and splines computed

- pspini: atom type   2  psp file is ../../../Psps_for_tests/O.psp8
- pspatm: opening atomic psp file    ../../../Psps_for_tests/O.psp8
- O     ONCVPSP-3.2.3.1  r_core=   1.35509   1.45563   1.26150
-  8.00000   6.00000    170504                znucl, zion, pspdat
    8   11    2    4       600   0.00000      pspcod,pspxc,lmax,lloc,mmax,r2well
    5.99000000000000    4.00000000000000    0.00000000000000   rchrg,fchrg,qchrg
     nproj     2     2     1
     extension_switch     1
  pspatm : epsatm=    6.19546011
         --- l  ekb(1:nproj) -->
             0    6.056735    0.824024
             1   -4.717130   -1.149271
             2   -1.331955
 pspatm: atomic psp has been read  and splines computed

- pspini: atom type   3  psp file is ../../../Psps_for_tests/Pd.psp8
- pspatm: opening atomic psp file    ../../../Psps_for_tests/Pd.psp8
- Pd    ONCVPSP-3.2.3.1  r_core=   1.41052   1.46191   1.55175
- 46.00000  18.00000    170510                znucl, zion, pspdat
    8   11    2    4       600   0.00000      pspcod,pspxc,lmax,lloc,mmax,r2well
    5.99000000000000    7.00000000000000    0.00000000000000   rchrg,fchrg,qchrg
     nproj     2     2     2
     extension_switch     1
  pspatm : epsatm=   26.09224486
         --- l  ekb(1:nproj) -->
             0    7.845850   -2.282160
             1    3.261104   -0.686948
             2   -1.134855   -0.401224
 pspatm: atomic psp has been read  and splines computed

   7.60865797E+04                                ecore*ucvol(ha*bohr**3)
--------------------------------------------------------------------------------

_setup2: Arith. and geom. avg. npw (full set) are   75298.000   75297.971

================================================================================

     iter   Etot(hartree)      deltaE(h)  residm     vres2
 ETOT  1  -1187.0974454972    -1.187E+03 1.696E-01 1.186E+08
 ETOT  2   2422.6617025338     3.610E+03 5.326E-01 1.899E+09
 ETOT  3  -698.49409938437    -3.121E+03 1.306E+00 3.510E+08
 ETOT  4  -1315.3275062511    -6.168E+02 2.113E-01 5.867E+07
 ETOT  5  -1412.0817136181    -9.675E+01 8.275E-02 1.701E+07
 ETOT  6  -1432.5335606912    -2.045E+01 4.968E-02 7.655E+06
 ETOT  7  -1434.7526971733    -2.219E+00 2.646E-02 6.648E+06
 ETOT  8  -1442.4124992179    -7.660E+00 1.719E-02 2.844E+06
 ETOT  9  -1443.0794914929    -6.670E-01 3.692E-02 2.419E+06
 ETOT 10  -1421.4323082401     2.165E+01 2.279E-01 9.734E+06
 ETOT 11  -1390.6539631793     3.078E+01 9.160E-02 2.647E+07
 ETOT 12  -1366.1997604980     2.445E+01 3.809E-02 4.047E+07
 ETOT 13  -1310.4471270245     5.575E+01 4.563E-02 6.827E+07
 ETOT 14  -1293.8407717056     1.661E+01 8.626E-02 6.953E+07
 ETOT 15  -1346.2677819130    -5.243E+01 7.367E-02 4.454E+07
 ETOT 16  -1343.2972313580     2.971E+00 3.621E-02 4.940E+07
 ETOT 17  -1369.8015894788    -2.650E+01 1.260E-02 3.653E+07
 ETOT 18  -1366.0017850417     3.800E+00 8.679E-02 3.221E+07
 ETOT 19  -1322.9931421029     4.301E+01 4.853E-02 5.145E+07
 ETOT 20  -1376.3654677657    -5.337E+01 1.438E-01 1.549E+07
 ETOT 21  -1443.8978206796    -6.753E+01 1.248E-01 4.430E+05
 ETOT 22  -1412.9409988785     3.096E+01 8.151E-02 1.222E+07
 ETOT 23  -1383.8693602006     2.907E+01 7.676E-02 2.913E+07
 ETOT 24  -1382.4784131687     1.391E+00 4.006E-02 3.260E+07
 ETOT 25  -1412.6734804691    -3.020E+01 1.393E-02 1.748E+07
 ETOT 26  -1413.3215657031    -6.481E-01 3.069E-02 1.611E+07
 ETOT 27  -1432.8349552337    -1.951E+01 1.048E-02 8.217E+06
 ETOT 28  -1402.8960679064     2.994E+01 3.359E-02 2.060E+07
 ETOT 29  -1382.2201056022     2.068E+01 9.751E-02 2.773E+07
 ETOT 30  -1420.1127033754    -3.789E+01 2.742E-01 8.989E+06

 Cartesian components of stress tensor (hartree/bohr^3)
  sigma(1 1)= -4.04157343E-03  sigma(3 2)=  8.45368104E-05
  sigma(2 2)= -5.89500802E-03  sigma(3 1)= -1.42406543E-03
  sigma(3 3)=  8.39031594E-03  sigma(2 1)= -1.31551593E-07


 scprqt:  WARNING -
  nstep=   30 was not enough SCF cycles to converge;
  maximum energy difference=  3.789E+01 exceeds toldfe=  1.000E-02

 Integrated electronic density in atomic spheres:
 ------------------------------------------------
 Atom  Sphere_radius  Integrated_density
    1        2.00000         12.37113193
    2        2.00000         11.34491150
    3        2.00000          9.43603648
    4        2.00000          9.00150256
    5        2.00000          5.97023367
    6        2.00000          5.74833711
    7        2.00000          5.57651219
    8        2.00000          6.17317949
    9        2.00000          4.53759368
   10        2.00000          3.69068860
   11        2.00000          6.59703947
   12        2.00000          5.05632469
   13        2.00000         15.71800348
   14        2.00000         16.09567181
   15        2.00000         15.52664989
   16        2.00000         13.96823924
   17        2.00000         14.71894323
   18        2.00000         13.64802249
   19        2.00000         16.09198880
   20        2.00000         15.26252040
================================================================================

 ----iterations are completed or convergence reached----

 Mean square residual over all n,k,spin=   1.2633E-02; max=  2.7419E-01
 reduced coordinates (array xred) for   20 atoms
       0.000000000000      0.000000000000      0.000000000000
       0.000000000000      0.000000000000      0.192906666667
       0.500000000000      0.322044051240      0.096453333333
       0.500000000000      0.322044051240      0.289360000000
       8.680801308635      0.000000000000      0.059800000000
       8.680801308635      0.000000000000      0.252706666667
       0.690005529444      0.000000000000      0.133106666667
       0.690005529444      0.000000000000      0.326013333333
       0.190005529444      0.322044051240      0.156253333333
       0.190005529444      0.322044051240      0.349160000000
       0.809994470556      0.322044051240      0.036653333333
       0.809994470556      0.322044051240      0.229560000000
       0.190005529444      0.000000000000      0.508035555556
       0.190005529444      0.000000000000      0.671422222222
       0.423486314625      0.299453967376      0.565802222222
       0.423486314625      0.299453967376      0.729188888889
       0.423486314625     -0.299453967376      0.565802222222
       0.423486314625     -0.299453967376      0.729188888889
       0.000000000000      0.000000000000      0.623566666667
       0.000000000000      0.000000000000      0.786953333333
 rms dE/dt=  3.9698E+01; max dE/dt=  1.2217E+02; dE/dt below (all hartree)
    1       1.369828862690     -0.163501367938    -46.638667221711
    2       3.458368101789     -6.676615821410   -138.234666950485
    3       3.469648672347     -1.573508109011   -122.058178659033
    4       0.241090081486     -3.304777722901    -53.919555334535
    5      -1.551987123915      1.967125739425     64.214193802687
    6      -1.457409557981      3.695440621843     59.927435692488
    7      -2.099294499245      1.545145109589     53.076135947392
    8      -1.085669325077      1.931118373156     11.805700060344
    9       0.969874722635      2.279397461832     72.025954432825
   10      -0.351508577925      0.159369469382     28.330132447109
   11      -2.550927895831     -0.036783273457     44.710573401571
   12      -1.933063175936      0.858256803566     70.169277253594
   13       1.825314559648      0.515733789836     10.656259545775
   14     -17.071318546991      0.448225691509   -114.919815910486
   15      -0.517572965781      1.572530805056    -10.119216757432
   16       1.276100961388      2.996775962028    -28.606646507145
   17      -0.289392961549     -2.136283884327     -9.084444338277
   18       1.456897811674     -3.537346456800    -33.982866878639
   19      14.625495724892     -0.177441923716    122.167090736668
   20      -1.347854905710      0.234395066534     28.280350175176

 cartesian coordinates (angstrom) at end:
    1      0.00000000000000     0.00000000000000     0.00000000000000
    2      0.00000000000000     0.00000000000000     4.59368151232807
    3      2.29684075616404     1.47936780433420     2.29684075616404
    4      2.29684075616404     1.47936780433420     6.89052226849211
    5     39.87683648367062     0.00000000000000     1.42401586831569
    6     39.87683648367062     0.00000000000000     6.01769738064376
    7      3.16966564401238     0.00000000000000     3.16966564401238
    8      3.16966564401238     0.00000000000000     7.76334715634045
    9      0.87282488784835     1.47936780433420     3.72085662447972
   10      0.87282488784835     1.47936780433420     8.31453813680780
   11      3.72085662447973     1.47936780433420     0.87282488784835
   12      3.72085662447973     1.47936780433420     5.46650640017642
   13      0.87282488784835     0.00000000000000    12.09783767190114
   14      0.87282488784835     0.00000000000000    15.98856018033826
   15      1.94536125421856     1.37559615372970    13.47343382563085
   16      1.94536125421856     1.37559615372970    17.36415633406796
   17      1.94536125421856    -1.37559615372970    13.47343382563085
   18      1.94536125421856    -1.37559615372970    17.36415633406796
   19      0.00000000000000     0.00000000000000    14.84897706163969
   20      0.00000000000000     0.00000000000000    18.73969957007681

 cartesian forces (hartree/bohr) at end:
    1     -0.16680465677809     0.02227492680947     1.04508043263568
    2     -0.40739760202502     0.77256458369268     3.08054709327510
    3     -0.40869708715975     0.18470312940296     2.72106957568728
    4     -0.03677761074508     0.38413977278714     1.20687794625398
    5      0.16977906668112    -0.22316640433081    -1.41831647901761
    6      0.15888403788955    -0.42226267223450    -1.32305518767987
    7      0.23282710088647    -0.17455560465384    -1.17080408223329
    8      0.11606076896224    -0.21901847254246    -0.25368328474333
    9     -0.12073123727133    -0.25913909376115    -1.59191115968736
   10      0.03148783246423    -0.01491874627599    -0.62089289333810
   11      0.28485380310121     0.00767741339128    -0.98490269232615
   12      0.21367779168585    -0.09542830002492    -1.55065166681555
   13     -0.21927513149910    -0.05597075996754    -0.22814016219735
   14      1.95755570282937    -0.04819404603258     2.56243929238622
   15      0.05061791124221    -0.17771034793410     0.23353708898503
   16     -0.15600750659583    -0.34177876985047     0.64436886120088
   17      0.02433231495706     0.24953307310812     0.21054214633714
   18     -0.17683471725457     0.41093093649319     0.76384042501186
   19     -1.69381447870722     0.02388083361281    -2.70615863310608
   20      0.14626369733668    -0.02356145168930    -0.61978662062849
 frms,max,avg= 9.6056503E-01 3.0805471E+00   9.005E-03 -3.440E-03 -8.666E-03 h/b

 cartesian forces (eV/Angstrom) at end:
    1     -8.57743960160009     1.14542269399875    53.74019204794939
    2    -20.94922523569142    39.72686484271950   158.40808729701595
    3    -21.01604744240703     9.49781599196079   139.92301167143108
    4     -1.89118062379273    19.75325967090700    62.06015401757457
    5      8.73038989559349   -11.47567694588068   -72.93275961061714
    6      8.17014503659234   -21.71361781536032   -68.03422746767505
    7     11.97244989464668    -8.97600933306657   -60.20516150231499
    8      5.96808419571467   -11.26238173534278   -13.04491789888240
    9     -6.20824931224184   -13.32546685496172   -81.85935624985088
   10      1.61916931076174    -0.76715271375248   -31.92759359683481
   11     14.64777026361596     0.39478843655936   -50.64572848298766
   12     10.98775290684471    -4.90712007420775   -79.73770800011742
   13    -11.27557966843010    -2.87813195596763   -11.73143783719636
   14    100.66155305319155    -2.47823728057632   131.76591521932338
   15      2.60287743055521    -9.13823274137966    12.00895894751659
   16     -8.02222786263193   -17.57496950101151    33.13477629977337
   17      1.25121783733499    12.83150545391596    10.82651155357524
   18     -9.09320600524358    21.13091658399283    39.27825060373538
   19    -87.09943515998783     1.22800173512084  -139.15626023976480
   20      7.52118108717523    -1.21157845766760   -31.87070677165343
 frms,max,avg= 4.9394236E+01 1.5840809E+02   4.630E-01 -1.769E-01 -4.456E-01 e/A
 length scales=  8.680800000000  8.680800000000 45.000000000000 bohr
              =  4.593681512328  4.593681512328 23.812974386550 angstroms
 prteigrs : about to open file DOSwithoutGeom2Layer_o_EIG
 Fermi (or HOMO) energy (hartree) =   0.24391   Average Vxc (hartree)=  -0.32062
 Eigenvalues (hartree) for nkpt=   2  k points:
 kpt#   1, nband=123, wtk=  0.50000, kpt=  0.1250  0.5000  0.5000 (reduced coord)
  -3.10651   -2.93437   -2.93000   -2.92589   -2.85169   -2.84587   -2.84247   -2.79182
  -2.35949   -2.22938   -2.10963   -2.00131   -1.91642   -1.74699   -1.73694   -1.73092
  -1.68831   -1.67582   -1.66762   -1.66465   -1.66148   -1.65966   -1.65733   -1.65061
  -1.64788   -1.61537   -1.60314   -1.59563   -1.58734   -1.58479   -1.57767   -1.57193
  -1.54568   -1.53017   -1.51355   -1.49019   -1.48353   -1.46609   -1.45661   -1.35261
  -1.34963   -1.34411   -1.25574   -1.24371   -1.23607   -1.06401   -1.05515   -1.03866
  -0.91663   -0.77750   -0.66444   -0.65081   -0.55382   -0.53544   -0.47317   -0.38091
  -0.37179   -0.34027   -0.33740   -0.29287   -0.22952   -0.20330   -0.19083   -0.16957
  -0.16504   -0.15826   -0.15526   -0.13788   -0.12536   -0.11762   -0.10950   -0.09633
  -0.08396   -0.07020   -0.06020   -0.03579   -0.03174   -0.03055   -0.02418   -0.01422
  -0.00474    0.00950    0.01629    0.01832    0.03077    0.04795    0.05166    0.05490
   0.05774    0.05894    0.06231    0.06629    0.07236    0.07444    0.07899    0.09078
   0.09254    0.09602    0.10392    0.10710    0.11444    0.11649    0.12096    0.12438
   0.13041    0.13293    0.13922    0.14263    0.14772    0.15190    0.15985    0.16937
   0.17161    0.17711    0.18094    0.18770    0.19848    0.20570    0.22784    0.24391
   0.26465    0.27527    0.31194
 prteigrs : prtvol=0 or 1, do not print more k-points.


--------------------------------------------------------------------------------
 Components of total free energy (in Hartree) :

    Kinetic energy  =  5.31263362110466E+02
    Hartree energy  =  1.16615252760784E+03
    XC energy       = -2.33132289459004E+02
    Ewald energy    =  8.89319997862754E+01
    PspCore energy  =  2.24375816852798E+01
    Loc. psp. energy= -2.99162573552639E+03
    NL   psp  energy= -4.14014957982984E+00
    >>>>>>>>> Etotal= -1.42011270337536E+03

 Other information on the energy :
    Total energy(eV)= -3.86432318960092E+04 ; Band energy (Ha)=  -1.8101222413E+02
--------------------------------------------------------------------------------

 Cartesian components of stress tensor (hartree/bohr^3)
  sigma(1 1)= -4.04157343E-03  sigma(3 2)=  8.45368104E-05
  sigma(2 2)= -5.89500802E-03  sigma(3 1)= -1.42406543E-03
  sigma(3 3)=  8.39031594E-03  sigma(2 1)= -1.31551593E-07

-Cartesian components of stress tensor (GPa)         [Pressure=  1.5164E+01 GPa]
- sigma(1 1)= -1.18907176E+02  sigma(3 2)=  2.48715841E+00
- sigma(2 2)= -1.73437095E+02  sigma(3 1)= -4.18974443E+01
- sigma(3 3)=  2.46851576E+02  sigma(2 1)= -3.87038083E-03

== END DATASET(S) ==============================================================
================================================================================
  
 -outvars: echo values of variables after computation  --------
            acell      8.6808000000E+00  8.6808000000E+00  4.5000000000E+01 Bohr
              amu      4.78800000E+01  1.59994000E+01  1.06420000E+02
           diemac      1.20000000E+01
             ecut      6.00000000E+01 Hartree
           etotal     -1.4201127034E+03
            fcart     -1.6680465678E-01  2.2274926809E-02  1.0450804326E+00
                      -4.0739760203E-01  7.7256458369E-01  3.0805470933E+00
                      -4.0869708716E-01  1.8470312940E-01  2.7210695757E+00
                      -3.6777610745E-02  3.8413977279E-01  1.2068779463E+00
                       1.6977906668E-01 -2.2316640433E-01 -1.4183164790E+00
                       1.5888403789E-01 -4.2226267223E-01 -1.3230551877E+00
                       2.3282710089E-01 -1.7455560465E-01 -1.1708040822E+00
                       1.1606076896E-01 -2.1901847254E-01 -2.5368328474E-01
                      -1.2073123727E-01 -2.5913909376E-01 -1.5919111597E+00
                       3.1487832464E-02 -1.4918746276E-02 -6.2089289334E-01
                       2.8485380310E-01  7.6774133913E-03 -9.8490269233E-01
                       2.1367779169E-01 -9.5428300025E-02 -1.5506516668E+00
                      -2.1927513150E-01 -5.5970759968E-02 -2.2814016220E-01
                       1.9575557028E+00 -4.8194046033E-02  2.5624392924E+00
                       5.0617911242E-02 -1.7771034793E-01  2.3353708899E-01
                      -1.5600750660E-01 -3.4177876985E-01  6.4436886120E-01
                       2.4332314957E-02  2.4953307311E-01  2.1054214634E-01
                      -1.7683471725E-01  4.1093093649E-01  7.6384042501E-01
                      -1.6938144787E+00  2.3880833613E-02 -2.7061586331E+00
                       1.4626369734E-01 -2.3561451689E-02 -6.1978662063E-01
-          fftalg         112
              ixc          11
              kpt      1.25000000E-01  5.00000000E-01  5.00000000E-01
                       3.75000000E-01  5.00000000E-01  5.00000000E-01
           kptopt           2
         kptrlatt        4    0    0      0    1    0      0    0    1
          kptrlen      8.68080000E+00
P           mkmem           2
            natom          20
            nband         123
            ngfft          64      64     320
             nkpt           2
             nsym           1
           ntypat           3
              occ      2.000000  2.000000  2.000000  2.000000  2.000000  2.000000
                       2.000000  2.000000  2.000000  2.000000  2.000000  2.000000
                       2.000000  2.000000  2.000000  2.000000  2.000000  2.000000
                       2.000000  2.000000  2.000000  2.000000  2.000000  2.000000
                       2.000000  2.000000  2.000000  2.000000  2.000000  2.000000
                       2.000000  2.000000  2.000000  2.000000  2.000000  2.000000
                       2.000000  2.000000  2.000000  2.000000  2.000000  2.000000
                       2.000000  2.000000  2.000000  2.000000  2.000000  2.000000
                       2.000000  2.000000  2.000000  2.000000  2.000000  2.000000
                       2.000000  2.000000  2.000000  2.000000  2.000000  2.000000
                       2.000000  2.000000  2.000000  2.000000  2.000000  2.000000
                       2.000000  2.000000  2.000000  2.000000  2.000000  2.000000
                       2.000000  2.000000  2.000000  2.000000  2.000000  2.000000
                       2.000000  2.000000  2.000000  2.000000  2.000000  2.000000
                       2.000000  2.000000  2.000000  2.000000  2.000000  2.000000
                       2.000000  2.000000  2.000000  2.000000  2.000000  2.000000
                       2.000000  2.000000  2.000000  2.000000  2.000000  2.000000
                       2.000000  2.000000  2.000000  2.000000  2.000000  2.000000
                       2.000000  2.000000  2.000000  2.000000  2.000000  2.000000
                       2.000000  2.000000  2.000000  2.000000  2.000000  2.000000
                       0.000000  0.000000  0.000000
           prtdos           2
           shiftk      5.00000000E-01  5.00000000E-01  5.00000000E-01
          spgroup           1
           strten     -4.0415734306E-03 -5.8950080228E-03  8.3903159444E-03
                       8.4536810383E-05 -1.4240654281E-03 -1.3155159263E-07
           toldfe      1.00000000E-02 Hartree
            typat      1  1  1  1  2  2  2  2  2  2  2  2  3  3  3  3  3  3  3  3
              wtk        0.50000    0.50000
           xangst      0.0000000000E+00  0.0000000000E+00  0.0000000000E+00
                       0.0000000000E+00  0.0000000000E+00  4.5936815123E+00
                       2.2968407562E+00  1.4793678043E+00  2.2968407562E+00
                       2.2968407562E+00  1.4793678043E+00  6.8905222685E+00
                       3.9876836484E+01  0.0000000000E+00  1.4240158683E+00
                       3.9876836484E+01  0.0000000000E+00  6.0176973806E+00
                       3.1696656440E+00  0.0000000000E+00  3.1696656440E+00
                       3.1696656440E+00  0.0000000000E+00  7.7633471563E+00
                       8.7282488785E-01  1.4793678043E+00  3.7208566245E+00
                       8.7282488785E-01  1.4793678043E+00  8.3145381368E+00
                       3.7208566245E+00  1.4793678043E+00  8.7282488785E-01
                       3.7208566245E+00  1.4793678043E+00  5.4665064002E+00
                       8.7282488785E-01  0.0000000000E+00  1.2097837672E+01
                       8.7282488785E-01  0.0000000000E+00  1.5988560180E+01
                       1.9453612542E+00  1.3755961537E+00  1.3473433826E+01
                       1.9453612542E+00  1.3755961537E+00  1.7364156334E+01
                       1.9453612542E+00 -1.3755961537E+00  1.3473433826E+01
                       1.9453612542E+00 -1.3755961537E+00  1.7364156334E+01
                       0.0000000000E+00  0.0000000000E+00  1.4848977062E+01
                       0.0000000000E+00  0.0000000000E+00  1.8739699570E+01
            xcart      0.0000000000E+00  0.0000000000E+00  0.0000000000E+00
                       0.0000000000E+00  0.0000000000E+00  8.6808000000E+00
                       4.3404000000E+00  2.7956000000E+00  4.3404000000E+00
                       4.3404000000E+00  2.7956000000E+00  1.3021200000E+01
                       7.5356300000E+01  0.0000000000E+00  2.6910000000E+00
                       7.5356300000E+01  0.0000000000E+00  1.1371800000E+01
                       5.9898000000E+00  0.0000000000E+00  5.9898000000E+00
                       5.9898000000E+00  0.0000000000E+00  1.4670600000E+01
                       1.6494000000E+00  2.7956000000E+00  7.0314000000E+00
                       1.6494000000E+00  2.7956000000E+00  1.5712200000E+01
                       7.0314000000E+00  2.7956000000E+00  1.6494000000E+00
                       7.0314000000E+00  2.7956000000E+00  1.0330200000E+01
                       1.6494000000E+00  0.0000000000E+00  2.2861600000E+01
                       1.6494000000E+00  0.0000000000E+00  3.0214000000E+01
                       3.6762000000E+00  2.5995000000E+00  2.5461100000E+01
                       3.6762000000E+00  2.5995000000E+00  3.2813500000E+01
                       3.6762000000E+00 -2.5995000000E+00  2.5461100000E+01
                       3.6762000000E+00 -2.5995000000E+00  3.2813500000E+01
                       0.0000000000E+00  0.0000000000E+00  2.8060500000E+01
                       0.0000000000E+00  0.0000000000E+00  3.5412900000E+01
             xred      0.0000000000E+00  0.0000000000E+00  0.0000000000E+00
                       0.0000000000E+00  0.0000000000E+00  1.9290666667E-01
                       5.0000000000E-01  3.2204405124E-01  9.6453333333E-02
                       5.0000000000E-01  3.2204405124E-01  2.8936000000E-01
                       8.6808013086E+00  0.0000000000E+00  5.9800000000E-02
                       8.6808013086E+00  0.0000000000E+00  2.5270666667E-01
                       6.9000552944E-01  0.0000000000E+00  1.3310666667E-01
                       6.9000552944E-01  0.0000000000E+00  3.2601333333E-01
                       1.9000552944E-01  3.2204405124E-01  1.5625333333E-01
                       1.9000552944E-01  3.2204405124E-01  3.4916000000E-01
                       8.0999447056E-01  3.2204405124E-01  3.6653333333E-02
                       8.0999447056E-01  3.2204405124E-01  2.2956000000E-01
                       1.9000552944E-01  0.0000000000E+00  5.0803555556E-01
                       1.9000552944E-01  0.0000000000E+00  6.7142222222E-01
                       4.2348631463E-01  2.9945396738E-01  5.6580222222E-01
                       4.2348631463E-01  2.9945396738E-01  7.2918888889E-01
                       4.2348631463E-01 -2.9945396738E-01  5.6580222222E-01
                       4.2348631463E-01 -2.9945396738E-01  7.2918888889E-01
                       0.0000000000E+00  0.0000000000E+00  6.2356666667E-01
                       0.0000000000E+00  0.0000000000E+00  7.8695333333E-01
            znucl       22.00000    8.00000   46.00000

================================================================================

- Total cpu        time (s,m,h):       6724.8      112.08      1.868
- Total wall clock time (s,m,h):       7674.0      127.90      2.132
-
- For major independent code sections, cpu and wall times (sec),
-  as well as % of the time and number of calls for node 0-
-<BEGIN_TIMER mpi_nprocs = 1, omp_nthreads = 1, mpi_rank = 0>
- cpu_time =         6724.8, wall_time =         7674.0
-
- routine                        cpu     %       wall     %      number of calls  Gflops    Speedup Efficacity
-                                                                  (-1=no count)
- projbd                      2572.438  38.3   2581.302  33.6          62288      -1.00        1.00       1.00
- nonlop(apply)               1801.203  26.8   2732.375  35.6          39016      -1.00        0.66       0.66
- fourwf%(pot)                1220.250  18.1   1224.643  16.0          39016      -1.00        1.00       1.00
- vtowfk(ssdiag)               443.141   6.6    444.462   5.8             -1      -1.00        1.00       1.00
- fourwf%(den)                 132.438   2.0    133.107   1.7           7200      -1.00        0.99       0.99
- others (108)                 110.406   1.6    109.907   1.4             -1      -1.00        1.00       1.00
-<END_TIMER>
-
- subtotal                    6279.875  93.4   7225.796  94.2                                  0.87       0.87

- For major independent code sections, cpu and wall times (sec),
- as well as % of the total time and number of calls 

-<BEGIN_TIMER mpi_nprocs = 1, omp_nthreads = 1, mpi_rank = world>
- cpu_time =        6724.8, wall_time =        7674.0
-
- routine                         cpu     %       wall     %      number of calls Gflops    Speedup Efficacity
-                                                                  (-1=no count)
- projbd                      2572.438  38.3   2581.302  33.6          62288      -1.00        1.00       1.00
- nonlop(apply)               1801.203  26.8   2732.375  35.6          39016      -1.00        0.66       0.66
- fourwf%(pot)                1220.250  18.1   1224.643  16.0          39016      -1.00        1.00       1.00
- vtowfk(ssdiag)               443.141   6.6    444.462   5.8             -1      -1.00        1.00       1.00
- fourwf%(den)                 132.438   2.0    133.107   1.7           7200      -1.00        0.99       0.99
- others (108)                 110.406   1.6    109.907   1.4             -1      -1.00        1.00       1.00
-<END_TIMER>

- subtotal                    6279.875  93.4   7225.796  94.2                                  0.87       0.87

================================================================================

 Suggested references for the acknowledgment of ABINIT usage.

 The users of ABINIT have little formal obligations with respect to the ABINIT group
 (those specified in the GNU General Public License, http://www.gnu.org/copyleft/gpl.txt).
 However, it is common practice in the scientific literature,
 to acknowledge the efforts of people that have made the research possible.
 In this spirit, please find below suggested citations of work written by ABINIT developers,
 corresponding to implementations inside of ABINIT that you have used in the present run.
 Note also that it will be of great value to readers of publications presenting these results,
 to read papers enabling them to understand the theoretical formalism and details
 of the ABINIT implementation.
 For information on why they are suggested, see also https://www.abinit.org/about/?text=acknowledgments.
-
- [1] Recent developments in the ABINIT software package.
- Computer Phys. Comm. 205, 106 (2016).
- X.Gonze, F.Jollet, F.Abreu Araujo, D.Adams, B.Amadon, T.Applencourt,
- C.Audouze, J.-M.Beuken, J.Bieder, A.Bokhanchuk, E.Bousquet, F.Bruneval
- D.Caliste, M.Cote, F.Dahm, F.Da Pieve, M.Delaveau, M.Di Gennaro,
- B.Dorado, C.Espejo, G.Geneste, L.Genovese, A.Gerossier, M.Giantomassi,
- Y.Gillet, D.R.Hamann, L.He, G.Jomard, J.Laflamme Janssen, S.Le Roux,
- A.Levitt, A.Lherbier, F.Liu, I.Lukacevic, A.Martin, C.Martins,
- M.J.T.Oliveira, S.Ponce, Y.Pouillon, T.Rangel, G.-M.Rignanese,
- A.H.Romero, B.Rousseau, O.Rubel, A.A.Shukri, M.Stankovski, M.Torrent,
- M.J.Van Setten, B.Van Troeye, M.J.Verstraete, D.Waroquier, J.Wiktor,
- B.Xue, A.Zhou, J.W.Zwanziger.
- Comment : the fourth generic paper describing the ABINIT project.
- Note that a version of this paper, that is not formatted for Computer Phys. Comm. 
- is available at https://www.abinit.org/about/ABINIT16.pdf .
- The licence allows the authors to put it on the Web.
-
- [2] Optimized norm-conserving Vanderbilt pseudopotentials.
- D.R. Hamann, Phys. Rev. B 88, 085117 (2013).
- Comment: Some pseudopotential generated using the ONCVPSP code were used.
-
- [3] ABINIT : First-principles approach of materials and nanosystem properties.
- Computer Phys. Comm. 180, 2582-2615 (2009).
- X. Gonze, B. Amadon, P.-M. Anglade, J.-M. Beuken, F. Bottin, P. Boulanger, F. Bruneval,
- D. Caliste, R. Caracas, M. Cote, T. Deutsch, L. Genovese, Ph. Ghosez, M. Giantomassi
- S. Goedecker, D.R. Hamann, P. Hermet, F. Jollet, G. Jomard, S. Leroux, M. Mancini, S. Mazevet,
- M.J.T. Oliveira, G. Onida, Y. Pouillon, T. Rangel, G.-M. Rignanese, D. Sangalli, R. Shaltaf,
- M. Torrent, M.J. Verstraete, G. Zerah, J.W. Zwanziger
- Comment : the third generic paper describing the ABINIT project.
- Note that a version of this paper, that is not formatted for Computer Phys. Comm. 
- is available at https://www.abinit.org/about/ABINIT_CPC_v10.pdf .
- The licence allows the authors to put it on the Web.
-
- [4] A brief introduction to the ABINIT software package.
- Z. Kristallogr. 220, 558-562 (2005).
- X. Gonze, G.-M. Rignanese, M. Verstraete, J.-M. Beuken, Y. Pouillon, R. Caracas, F. Jollet,
- M. Torrent, G. Zerah, M. Mikami, Ph. Ghosez, M. Veithen, J.-Y. Raty, V. Olevano, F. Bruneval,
- L. Reining, R. Godby, G. Onida, D.R. Hamann, and D.C. Allan.
- Comment : the second generic paper describing the ABINIT project. Note that this paper
- should be cited especially if you are using the GW part of ABINIT, as several authors
- of this part are not in the list of authors of the first or third paper.
- The .pdf of the latter paper is available at https://www.abinit.org/about/zfk_0505-06_558-562.pdf.
- Note that it should not redistributed (Copyright by Oldenburg Wissenshaftverlag,
- the licence allows the authors to put it on the Web).
-
- And optionally:
-
- [5] First-principles computation of material properties : the ABINIT software project. 
- X. Gonze, J.-M. Beuken, R. Caracas, F. Detraux, M. Fuchs, G.-M. Rignanese, L. Sindic,
- M. Verstraete, G. Zerah, F. Jollet, M. Torrent, A. Roy, M. Mikami, Ph. Ghosez, J.-Y. Raty, D.C. Allan.
- Computational Materials Science 25, 478-492 (2002). http://dx.doi.org/10.1016/S0927-0256(02)00325-7
- Comment : the original paper describing the ABINIT project.
-
- Proc.   0 individual time (sec): cpu=       6724.9  wall=       7674.1

================================================================================

 Calculation completed.
.Delivered   2 WARNINGs and   2 COMMENTs to log file.
+Overall time at end (sec) : cpu=       6724.9  wall=       7674.1
