
.Version 8.6.3 of ABINIT 
.(sequential version, prepared for a x86_64_linux_gnu5.4 computer) 

.Copyright (C) 1998-2017 ABINIT group . 
 ABINIT comes with ABSOLUTELY NO WARRANTY.
 It is free software, and you are welcome to redistribute it
 under certain conditions (GNU General Public License,
 see ~abinit/COPYING or http://www.gnu.org/copyleft/gpl.txt).

 ABINIT is a project of the Universite Catholique de Louvain,
 Corning Inc. and other collaborators, see ~abinit/doc/developers/contributors.txt .
 Please read ~abinit/doc/users/acknowledgments.html for suggested
 acknowledgments of the ABINIT effort.
 For more information, see https://www.abinit.org .

.Starting date : Sun 22 Apr 2018.
- ( at 15h18 )
  
- input  file    -> DOSwithoutGeom.in
- output file    -> DOSwithoutGeom.out
- root for input  files -> DOSwithoutGeom_i
- root for output files -> DOSwithoutGeom_o


 Symmetries : space group P1 (#  1); Bravais aP (primitive triclinic)
================================================================================
 Values of the parameters that define the memory need of the present run
     intxc =       0    ionmov =       0      iscf =       7    lmnmax =       6
     lnmax =       6     mgfft =     320  mpssoang =       3    mqgrid =   15692
     natom =      20  nloc_mem =       1    nspden =       1   nspinor =       1
    nsppol =       1      nsym =       1    n1xccc =    2501    ntypat =       3
    occopt =       1   xclevel =       2
-    mband =         123        mffmem =           1         mkmem =           2
       mpw =       75364          nfft =     1310720          nkpt =           2
================================================================================
P This job should need less than                     681.793 Mbytes of memory.
  Rough estimation (10% accuracy) of disk space for files :
_ WF disk file :    282.893 Mbytes ; DEN or POT disk file :     10.002 Mbytes.
================================================================================

--------------------------------------------------------------------------------
------------- Echo of variables that govern the present computation ------------
--------------------------------------------------------------------------------
-
- outvars: echo of selected default values                                      
-   iomode0 =  0 , fftalg0 =112 , wfoptalg0 =  0
-
- outvars: echo of global parameters not present in the input file              
-  max_nthreads =    0
-
 -outvars: echo values of preprocessed input variables --------
            acell      8.6808000000E+00  8.6808000000E+00  4.5000000000E+01 Bohr
              amu      4.78800000E+01  1.59994000E+01  1.06420000E+02
           diemac      1.20000000E+01
             ecut      6.00000000E+01 Hartree
-          fftalg         112
              ixc          11
              kpt      1.25000000E-01  5.00000000E-01  5.00000000E-01
                       3.75000000E-01  5.00000000E-01  5.00000000E-01
           kptopt           2
         kptrlatt        4    0    0      0    1    0      0    0    1
          kptrlen      8.68080000E+00
P           mkmem           2
            natom          20
            nband         123
            ngfft          64      64     320
             nkpt           2
            nstep          10
             nsym           1
           ntypat           3
              occ      2.000000  2.000000  2.000000  2.000000  2.000000  2.000000
                       2.000000  2.000000  2.000000  2.000000  2.000000  2.000000
                       2.000000  2.000000  2.000000  2.000000  2.000000  2.000000
                       2.000000  2.000000  2.000000  2.000000  2.000000  2.000000
                       2.000000  2.000000  2.000000  2.000000  2.000000  2.000000
                       2.000000  2.000000  2.000000  2.000000  2.000000  2.000000
                       2.000000  2.000000  2.000000  2.000000  2.000000  2.000000
                       2.000000  2.000000  2.000000  2.000000  2.000000  2.000000
                       2.000000  2.000000  2.000000  2.000000  2.000000  2.000000
                       2.000000  2.000000  2.000000  2.000000  2.000000  2.000000
                       2.000000  2.000000  2.000000  2.000000  2.000000  2.000000
                       2.000000  2.000000  2.000000  2.000000  2.000000  2.000000
                       2.000000  2.000000  2.000000  2.000000  2.000000  2.000000
                       2.000000  2.000000  2.000000  2.000000  2.000000  2.000000
                       2.000000  2.000000  2.000000  2.000000  2.000000  2.000000
                       2.000000  2.000000  2.000000  2.000000  2.000000  2.000000
                       2.000000  2.000000  2.000000  2.000000  2.000000  2.000000
                       2.000000  2.000000  2.000000  2.000000  2.000000  2.000000
                       2.000000  2.000000  2.000000  2.000000  2.000000  2.000000
                       2.000000  2.000000  2.000000  2.000000  2.000000  2.000000
                       0.000000  0.000000  0.000000
           prtdos           2
           shiftk      5.00000000E-01  5.00000000E-01  5.00000000E-01
          spgroup           1
           toldfe      1.00000000E-02 Hartree
            typat      1  1  1  1  2  2  2  2  2  2  2  2  3  3  3  3  3  3  3  3
              wtk        0.50000    0.50000
           xangst      0.0000000000E+00  0.0000000000E+00  0.0000000000E+00
                       0.0000000000E+00  0.0000000000E+00  4.5936815123E+00
                       2.2968407562E+00  1.4793678043E+00  2.2968407562E+00
                       2.2968407562E+00  1.4793678043E+00  6.8905222685E+00
                       3.9876836484E+01  0.0000000000E+00  1.4240158683E+00
                       3.9876836484E+01  0.0000000000E+00  6.0176973806E+00
                       3.1696656440E+00  0.0000000000E+00  3.1696656440E+00
                       3.1696656440E+00  0.0000000000E+00  7.7633471563E+00
                       8.7282488785E-01  1.4793678043E+00  3.7208566245E+00
                       8.7282488785E-01  1.4793678043E+00  8.3145381368E+00
                       3.7208566245E+00  1.4793678043E+00  8.7282488785E-01
                       3.7208566245E+00  1.4793678043E+00  5.4665064002E+00
                       8.7282488785E-01  0.0000000000E+00  1.2097837672E+01
                       8.7282488785E-01  0.0000000000E+00  1.5988560180E+01
                       1.9453612542E+00  1.3755961537E+00  1.3473433826E+01
                       1.9453612542E+00  1.3755961537E+00  1.7364156334E+01
                       1.9453612542E+00 -1.3755961537E+00  1.3473433826E+01
                       1.9453612542E+00 -1.3755961537E+00  1.7364156334E+01
                       0.0000000000E+00  0.0000000000E+00  1.4848977062E+01
                       0.0000000000E+00  0.0000000000E+00  1.8739699570E+01
            xcart      0.0000000000E+00  0.0000000000E+00  0.0000000000E+00
                       0.0000000000E+00  0.0000000000E+00  8.6808000000E+00
                       4.3404000000E+00  2.7956000000E+00  4.3404000000E+00
                       4.3404000000E+00  2.7956000000E+00  1.3021200000E+01
                       7.5356300000E+01  0.0000000000E+00  2.6910000000E+00
                       7.5356300000E+01  0.0000000000E+00  1.1371800000E+01
                       5.9898000000E+00  0.0000000000E+00  5.9898000000E+00
                       5.9898000000E+00  0.0000000000E+00  1.4670600000E+01
                       1.6494000000E+00  2.7956000000E+00  7.0314000000E+00
                       1.6494000000E+00  2.7956000000E+00  1.5712200000E+01
                       7.0314000000E+00  2.7956000000E+00  1.6494000000E+00
                       7.0314000000E+00  2.7956000000E+00  1.0330200000E+01
                       1.6494000000E+00  0.0000000000E+00  2.2861600000E+01
                       1.6494000000E+00  0.0000000000E+00  3.0214000000E+01
                       3.6762000000E+00  2.5995000000E+00  2.5461100000E+01
                       3.6762000000E+00  2.5995000000E+00  3.2813500000E+01
                       3.6762000000E+00 -2.5995000000E+00  2.5461100000E+01
                       3.6762000000E+00 -2.5995000000E+00  3.2813500000E+01
                       0.0000000000E+00  0.0000000000E+00  2.8060500000E+01
                       0.0000000000E+00  0.0000000000E+00  3.5412900000E+01
             xred      0.0000000000E+00  0.0000000000E+00  0.0000000000E+00
                       0.0000000000E+00  0.0000000000E+00  1.9290666667E-01
                       5.0000000000E-01  3.2204405124E-01  9.6453333333E-02
                       5.0000000000E-01  3.2204405124E-01  2.8936000000E-01
                       8.6808013086E+00  0.0000000000E+00  5.9800000000E-02
                       8.6808013086E+00  0.0000000000E+00  2.5270666667E-01
                       6.9000552944E-01  0.0000000000E+00  1.3310666667E-01
                       6.9000552944E-01  0.0000000000E+00  3.2601333333E-01
                       1.9000552944E-01  3.2204405124E-01  1.5625333333E-01
                       1.9000552944E-01  3.2204405124E-01  3.4916000000E-01
                       8.0999447056E-01  3.2204405124E-01  3.6653333333E-02
                       8.0999447056E-01  3.2204405124E-01  2.2956000000E-01
                       1.9000552944E-01  0.0000000000E+00  5.0803555556E-01
                       1.9000552944E-01  0.0000000000E+00  6.7142222222E-01
                       4.2348631463E-01  2.9945396738E-01  5.6580222222E-01
                       4.2348631463E-01  2.9945396738E-01  7.2918888889E-01
                       4.2348631463E-01 -2.9945396738E-01  5.6580222222E-01
                       4.2348631463E-01 -2.9945396738E-01  7.2918888889E-01
                       0.0000000000E+00  0.0000000000E+00  6.2356666667E-01
                       0.0000000000E+00  0.0000000000E+00  7.8695333333E-01
            znucl       22.00000    8.00000   46.00000

================================================================================

 chkinp: Checking input parameters for consistency.

================================================================================
== DATASET  1 ==================================================================
-   nproc =    1

 Exchange-correlation functional for the present dataset will be:
  GGA: Perdew-Burke-Ernzerhof functional - ixc=11
 Citation for XC functional:
  J.P.Perdew, K.Burke, M.Ernzerhof, PRL 77, 3865 (1996)

 Real(R)+Recip(G) space primitive vectors, cartesian coordinates (Bohr,Bohr^-1):
 R(1)=  8.6808000  0.0000000  0.0000000  G(1)=  0.1151968  0.0000000  0.0000000
 R(2)=  0.0000000  8.6808000  0.0000000  G(2)=  0.0000000  0.1151968  0.0000000
 R(3)=  0.0000000  0.0000000 45.0000000  G(3)=  0.0000000  0.0000000  0.0222222
 Unit cell volume ucvol=  3.3910330E+03 bohr^3
 Angles (23,13,12)=  9.00000000E+01  9.00000000E+01  9.00000000E+01 degrees

 getcut: wavevector=  0.0000  0.0000  0.0000  ngfft=  64  64 320
         ecut(hartree)=     60.000   => boxcut(ratio)=   2.03937

--- Pseudopotential description ------------------------------------------------
- pspini: atom type   1  psp file is ../../../Psps_for_tests/Ti.psp8
- pspatm: opening atomic psp file    ../../../Psps_for_tests/Ti.psp8
- Ti    ONCVPSP-3.2.3.1  r_core=   1.35825   1.31050   1.66360
- 22.00000  12.00000    170504                znucl, zion, pspdat
    8   11    2    4       600   0.00000      pspcod,pspxc,lmax,lloc,mmax,r2well
    5.99000000000000    2.50000000000000    0.00000000000000   rchrg,fchrg,qchrg
     nproj     2     2     2
     extension_switch     1
  pspatm : epsatm=   14.68144390
         --- l  ekb(1:nproj) -->
             0   11.362348    1.263639
             1    1.975402   -0.084666
             2   -5.186090   -1.477451
 pspatm: atomic psp has been read  and splines computed

- pspini: atom type   2  psp file is ../../../Psps_for_tests/O.psp8
- pspatm: opening atomic psp file    ../../../Psps_for_tests/O.psp8
- O     ONCVPSP-3.2.3.1  r_core=   1.35509   1.45563   1.26150
-  8.00000   6.00000    170504                znucl, zion, pspdat
    8   11    2    4       600   0.00000      pspcod,pspxc,lmax,lloc,mmax,r2well
    5.99000000000000    4.00000000000000    0.00000000000000   rchrg,fchrg,qchrg
     nproj     2     2     1
     extension_switch     1
  pspatm : epsatm=    6.19546011
         --- l  ekb(1:nproj) -->
             0    6.056735    0.824024
             1   -4.717130   -1.149271
             2   -1.331955
 pspatm: atomic psp has been read  and splines computed

- pspini: atom type   3  psp file is ../../../Psps_for_tests/Pd.psp8
- pspatm: opening atomic psp file    ../../../Psps_for_tests/Pd.psp8
- Pd    ONCVPSP-3.2.3.1  r_core=   1.41052   1.46191   1.55175
- 46.00000  18.00000    170510                znucl, zion, pspdat
    8   11    2    4       600   0.00000      pspcod,pspxc,lmax,lloc,mmax,r2well
    5.99000000000000    7.00000000000000    0.00000000000000   rchrg,fchrg,qchrg
     nproj     2     2     2
     extension_switch     1
  pspatm : epsatm=   26.09224486
         --- l  ekb(1:nproj) -->
             0    7.845850   -2.282160
             1    3.261104   -0.686948
             2   -1.134855   -0.401224
 pspatm: atomic psp has been read  and splines computed

   7.60865797E+04                                ecore*ucvol(ha*bohr**3)
--------------------------------------------------------------------------------

_setup2: Arith. and geom. avg. npw (full set) are   75298.000   75297.971

================================================================================

     iter   Etot(hartree)      deltaE(h)  residm     vres2
 ETOT  1  -1187.0974454972    -1.187E+03 1.696E-01 1.186E+08
 ETOT  2   2422.6617025338     3.610E+03 5.326E-01 1.899E+09
 ETOT  3  -698.49409938437    -3.121E+03 1.306E+00 3.510E+08
 ETOT  4  -1315.3275062511    -6.168E+02 2.113E-01 5.867E+07
 ETOT  5  -1412.0817136181    -9.675E+01 8.275E-02 1.701E+07
 ETOT  6  -1432.5335606912    -2.045E+01 4.968E-02 7.655E+06
 ETOT  7  -1434.7526971733    -2.219E+00 2.646E-02 6.648E+06
 ETOT  8  -1442.4124992179    -7.660E+00 1.719E-02 2.844E+06
 ETOT  9  -1443.0794914929    -6.670E-01 3.692E-02 2.419E+06
 ETOT 10  -1421.4323082401     2.165E+01 2.279E-01 9.734E+06

 Cartesian components of stress tensor (hartree/bohr^3)
  sigma(1 1)=  8.94612074E-04  sigma(3 2)=  7.64598717E-05
  sigma(2 2)= -2.59653588E-03  sigma(3 1)= -2.14362481E-03
  sigma(3 3)=  1.24458361E-02  sigma(2 1)= -2.02254928E-04


 scprqt:  WARNING -
  nstep=   10 was not enough SCF cycles to converge;
  maximum energy difference=  2.165E+01 exceeds toldfe=  1.000E-02

 Integrated electronic density in atomic spheres:
 ------------------------------------------------
 Atom  Sphere_radius  Integrated_density
    1        2.00000          9.73766865
    2        2.00000         10.36899325
    3        2.00000         10.30098515
    4        2.00000         10.76468512
    5        2.00000          5.78760117
    6        2.00000          6.98999053
    7        2.00000          5.31329659
    8        2.00000          7.38840741
    9        2.00000          4.45204761
   10        2.00000          4.71230846
   11        2.00000          4.97762183
   12        2.00000          6.20986749
   13        2.00000         13.18474293
   14        2.00000         16.18706726
   15        2.00000         13.53529846
   16        2.00000         14.72195939
   17        2.00000         14.23302240
   18        2.00000         14.77544821
   19        2.00000         15.84538870
   20        2.00000         14.67556793
================================================================================

 ----iterations are completed or convergence reached----

 Mean square residual over all n,k,spin=   9.6413E-03; max=  2.2794E-01
 reduced coordinates (array xred) for   20 atoms
       0.000000000000      0.000000000000      0.000000000000
       0.000000000000      0.000000000000      0.192906666667
       0.500000000000      0.322044051240      0.096453333333
       0.500000000000      0.322044051240      0.289360000000
       8.680801308635      0.000000000000      0.059800000000
       8.680801308635      0.000000000000      0.252706666667
       0.690005529444      0.000000000000      0.133106666667
       0.690005529444      0.000000000000      0.326013333333
       0.190005529444      0.322044051240      0.156253333333
       0.190005529444      0.322044051240      0.349160000000
       0.809994470556      0.322044051240      0.036653333333
       0.809994470556      0.322044051240      0.229560000000
       0.190005529444      0.000000000000      0.508035555556
       0.190005529444      0.000000000000      0.671422222222
       0.423486314625      0.299453967376      0.565802222222
       0.423486314625      0.299453967376      0.729188888889
       0.423486314625     -0.299453967376      0.565802222222
       0.423486314625     -0.299453967376      0.729188888889
       0.000000000000      0.000000000000      0.623566666667
       0.000000000000      0.000000000000      0.786953333333
 rms dE/dt=  3.4126E+01; max dE/dt=  1.3228E+02; dE/dt below (all hartree)
    1       2.700442354235     -2.460816778195     12.339862817714
    2      -0.974923572261     -3.570255568557     68.772653163205
    3      -2.432650228549      2.366790460572     65.119339019912
    4       5.061063098575     -4.653978512556   -115.568990266293
    5       0.525864403149      2.394985058707    -25.094084912204
    6       0.310597281235      1.703442261331      1.679803160346
    7      -0.428875904338     -0.428659429599    -45.709585247496
    8      -1.440162275267      2.568738308974      1.538964137230
    9      -0.875871111291      1.694489295702    -31.824290347132
   10      -3.286758669122      0.581436253699     70.192627970247
   11       0.040206461290     -0.603043487244    -39.912633769916
   12       1.343908538085      0.231050182869    -11.337622985823
   13      -3.925118410556      0.113483415807     39.303789794964
   14     -21.903327429265     -0.509404754250   -123.145089947101
   15       3.012902374995     15.519235123535     12.562322522893
   16       1.886007061033     10.900088363957    -17.222514969159
   17       2.321525119927    -15.455178312386     10.980232279919
   18       1.313834000080    -11.361719013420    -14.919926625018
   19      19.213132096002      0.469988729400    132.280970809931
   20      -2.104010183996      0.097814889844     16.349801104199

 cartesian coordinates (angstrom) at end:
    1      0.00000000000000     0.00000000000000     0.00000000000000
    2      0.00000000000000     0.00000000000000     4.59368151232807
    3      2.29684075616404     1.47936780433420     2.29684075616404
    4      2.29684075616404     1.47936780433420     6.89052226849211
    5     39.87683648367062     0.00000000000000     1.42401586831569
    6     39.87683648367062     0.00000000000000     6.01769738064376
    7      3.16966564401238     0.00000000000000     3.16966564401238
    8      3.16966564401238     0.00000000000000     7.76334715634045
    9      0.87282488784835     1.47936780433420     3.72085662447972
   10      0.87282488784835     1.47936780433420     8.31453813680780
   11      3.72085662447973     1.47936780433420     0.87282488784835
   12      3.72085662447973     1.47936780433420     5.46650640017642
   13      0.87282488784835     0.00000000000000    12.09783767190114
   14      0.87282488784835     0.00000000000000    15.98856018033826
   15      1.94536125421856     1.37559615372970    13.47343382563085
   16      1.94536125421856     1.37559615372970    17.36415633406796
   17      1.94536125421856    -1.37559615372970    13.47343382563085
   18      1.94536125421856    -1.37559615372970    17.36415633406796
   19      0.00000000000000     0.00000000000000    14.84897706163969
   20      0.00000000000000     0.00000000000000    18.73969957007681

 cartesian forces (hartree/bohr) at end:
    1     -0.30902141554201     0.28116545740077    -0.26712403182652
    2      0.11436881652136     0.40896920709690    -1.52118603950409
    3      0.28229419854708    -0.27495923603384    -1.44000128076424
    4     -0.58095726757642     0.53381057471261     2.57529492559586
    5     -0.05851708977873    -0.27820716227733     0.56474147328277
    6     -0.03371901564800    -0.19854367534347    -0.03023381721833
    7      0.05146589652295     0.04706752304032     1.02286370295594
    8      0.16796280590101    -0.29822297306293    -0.02710406114909
    9      0.10295829433799    -0.19751232274587     0.71430159405896
   10      0.38068472022394    -0.06929222298514    -1.55274103521614
   11     -0.00257087032209     0.06715600078945     0.89404255900972
   12     -0.15275312043674    -0.02892888425720     0.25904231936321
   13      0.45422169163602    -0.01538557407127    -0.86632240909874
   14      2.52525305034824     0.05636912250713     2.74365269628048
   15     -0.34501579633178    -1.79007819545731    -0.27206758083048
   16     -0.21520111174484    -1.25796747299184     0.38981769677067
   17     -0.26537137933470     1.77807375320200    -0.23691001987552
   18     -0.14928863121853     1.30652052090014     0.33864906690087
   19     -2.21122970760806    -0.05645382971511    -2.93248198720912
   20      0.24443593150331    -0.01358061070802    -0.35623377152618
 frms,max,avg= 9.7214267E-01 2.9324820E+00  -2.061E-03  2.313E-03 -7.095E-03 h/b

 cartesian forces (eV/Angstrom) at end:
    1    -15.89051875775190    14.45810791793321   -13.73606884474537
    2      5.88108051038111    21.03004041101100   -78.22252465050937
    3     14.51615011648615   -14.13897121061792   -74.04783685634321
    4    -29.87402132529674    27.44964110554962   132.42697840260561
    5     -3.00906948842712   -14.30598627915412    29.04017172641660
    6     -1.73390135343093   -10.20952541992826    -1.55468525954307
    7      2.64648258324761     2.42030914408082    52.59776197043319
    8      8.63699401898515   -15.33524056621532    -1.39374674517424
    9      5.29432791761201   -10.15649114148111    36.73086170800648
   10     19.57559373966991    -3.56314906907153   -79.84514763404482
   11     -0.13219945616132     3.45330011633222    45.97351296593585
   12     -7.85488061190770    -1.48758291435452    13.32049051575517
   13     23.35701653058648    -0.79115796214161   -44.54808566551582
   14    129.85372193136507     2.89861657965196   141.08428232565211
   15    -17.74142408128854   -92.04951408582939   -13.99027633402079
   16    -11.06608516717996   -64.68728288994946    20.04523023678887
   17    -13.64594383755660    91.43222089758930   -12.18240201291035
   18     -7.67672942840014    67.18398078766525    17.41403371816451
   19   -113.70599375714583    -2.90297239905358  -150.79427405632754
   20     12.56939991621330    -0.69834302201656   -18.31827551062384
 frms,max,avg= 4.9989582E+01 1.5079427E+02  -1.060E-01  1.189E-01 -3.648E-01 e/A
 length scales=  8.680800000000  8.680800000000 45.000000000000 bohr
              =  4.593681512328  4.593681512328 23.812974386550 angstroms
 prteigrs : about to open file DOSwithoutGeom_o_EIG
 Fermi (or HOMO) energy (hartree) =   0.37462   Average Vxc (hartree)=  -0.32632
 Eigenvalues (hartree) for nkpt=   2  k points:
 kpt#   1, nband=123, wtk=  0.50000, kpt=  0.1250  0.5000  0.5000 (reduced coord)
  -3.01487   -2.75831   -2.71877   -2.70390   -2.69030   -2.64604   -2.60248   -2.59011
  -2.35188   -2.25075   -2.21132   -2.17063   -1.88788   -1.67202   -1.64137   -1.53518
  -1.52128   -1.50609   -1.49509   -1.47616   -1.47306   -1.46781   -1.45910   -1.45048
  -1.44754   -1.44006   -1.43912   -1.43609   -1.39745   -1.39147   -1.38911   -1.38733
  -1.38209   -1.37372   -1.36575   -1.36273   -1.36104   -1.35761   -1.35051   -1.34852
  -1.34660   -1.34446   -1.34334   -1.33391   -1.33390   -1.31169   -1.30728   -1.29679
  -0.95599   -0.84825   -0.76740   -0.69303   -0.64928   -0.58126   -0.54811   -0.51008
  -0.41704   -0.38352   -0.36763   -0.31921   -0.30592   -0.27963   -0.24171   -0.23120
  -0.22891   -0.21202   -0.20201   -0.18040   -0.16892   -0.14247   -0.13286   -0.11581
  -0.10754   -0.09375   -0.09281   -0.07457   -0.06905   -0.06054   -0.04942   -0.04384
  -0.03169   -0.02443    0.00023    0.02233    0.06723    0.06949    0.09496    0.17853
   0.19262    0.19697    0.20198    0.20514    0.21008    0.21264    0.22447    0.23185
   0.23719    0.24368    0.24600    0.25389    0.26160    0.26911    0.27233    0.27389
   0.28058    0.28735    0.29358    0.30153    0.30616    0.30893    0.31673    0.33138
   0.33256    0.34003    0.34522    0.34828    0.35972    0.36443    0.36999    0.37315
   0.37934    0.39443    0.44651
 prteigrs : prtvol=0 or 1, do not print more k-points.


--------------------------------------------------------------------------------
 Components of total free energy (in Hartree) :

    Kinetic energy  =  5.10335923713553E+02
    Hartree energy  =  1.12796298443415E+03
    XC energy       = -2.29908244561225E+02
    Ewald energy    =  8.89319997862754E+01
    PspCore energy  =  2.24375816852798E+01
    Loc. psp. energy= -2.93904666077381E+03
    NL   psp  energy= -2.14589252429639E+00
    >>>>>>>>> Etotal= -1.42143230824006E+03

 Other information on the energy :
    Total energy(eV)= -3.86791401705262E+04 ; Band energy (Ha)=  -1.6532921610E+02
--------------------------------------------------------------------------------

 Cartesian components of stress tensor (hartree/bohr^3)
  sigma(1 1)=  8.94612074E-04  sigma(3 2)=  7.64598717E-05
  sigma(2 2)= -2.59653588E-03  sigma(3 1)= -2.14362481E-03
  sigma(3 3)=  1.24458361E-02  sigma(2 1)= -2.02254928E-04

-Cartesian components of stress tensor (GPa)         [Pressure= -1.0537E+02 GPa]
- sigma(1 1)=  2.63203915E+01  sigma(3 2)=  2.24952671E+00
- sigma(2 2)= -7.63927101E+01  sigma(3 1)= -6.30676087E+01
- sigma(3 3)=  3.66169077E+02  sigma(2 1)= -5.95054443E+00

== END DATASET(S) ==============================================================
================================================================================
  
 -outvars: echo values of variables after computation  --------
            acell      8.6808000000E+00  8.6808000000E+00  4.5000000000E+01 Bohr
              amu      4.78800000E+01  1.59994000E+01  1.06420000E+02
           diemac      1.20000000E+01
             ecut      6.00000000E+01 Hartree
           etotal     -1.4214323082E+03
            fcart     -3.0902141554E-01  2.8116545740E-01 -2.6712403183E-01
                       1.1436881652E-01  4.0896920710E-01 -1.5211860395E+00
                       2.8229419855E-01 -2.7495923603E-01 -1.4400012808E+00
                      -5.8095726758E-01  5.3381057471E-01  2.5752949256E+00
                      -5.8517089779E-02 -2.7820716228E-01  5.6474147328E-01
                      -3.3719015648E-02 -1.9854367534E-01 -3.0233817218E-02
                       5.1465896523E-02  4.7067523040E-02  1.0228637030E+00
                       1.6796280590E-01 -2.9822297306E-01 -2.7104061149E-02
                       1.0295829434E-01 -1.9751232275E-01  7.1430159406E-01
                       3.8068472022E-01 -6.9292222985E-02 -1.5527410352E+00
                      -2.5708703221E-03  6.7156000789E-02  8.9404255901E-01
                      -1.5275312044E-01 -2.8928884257E-02  2.5904231936E-01
                       4.5422169164E-01 -1.5385574071E-02 -8.6632240910E-01
                       2.5252530503E+00  5.6369122507E-02  2.7436526963E+00
                      -3.4501579633E-01 -1.7900781955E+00 -2.7206758083E-01
                      -2.1520111174E-01 -1.2579674730E+00  3.8981769677E-01
                      -2.6537137933E-01  1.7780737532E+00 -2.3691001988E-01
                      -1.4928863122E-01  1.3065205209E+00  3.3864906690E-01
                      -2.2112297076E+00 -5.6453829715E-02 -2.9324819872E+00
                       2.4443593150E-01 -1.3580610708E-02 -3.5623377153E-01
-          fftalg         112
              ixc          11
              kpt      1.25000000E-01  5.00000000E-01  5.00000000E-01
                       3.75000000E-01  5.00000000E-01  5.00000000E-01
           kptopt           2
         kptrlatt        4    0    0      0    1    0      0    0    1
          kptrlen      8.68080000E+00
P           mkmem           2
            natom          20
            nband         123
            ngfft          64      64     320
             nkpt           2
            nstep          10
             nsym           1
           ntypat           3
              occ      2.000000  2.000000  2.000000  2.000000  2.000000  2.000000
                       2.000000  2.000000  2.000000  2.000000  2.000000  2.000000
                       2.000000  2.000000  2.000000  2.000000  2.000000  2.000000
                       2.000000  2.000000  2.000000  2.000000  2.000000  2.000000
                       2.000000  2.000000  2.000000  2.000000  2.000000  2.000000
                       2.000000  2.000000  2.000000  2.000000  2.000000  2.000000
                       2.000000  2.000000  2.000000  2.000000  2.000000  2.000000
                       2.000000  2.000000  2.000000  2.000000  2.000000  2.000000
                       2.000000  2.000000  2.000000  2.000000  2.000000  2.000000
                       2.000000  2.000000  2.000000  2.000000  2.000000  2.000000
                       2.000000  2.000000  2.000000  2.000000  2.000000  2.000000
                       2.000000  2.000000  2.000000  2.000000  2.000000  2.000000
                       2.000000  2.000000  2.000000  2.000000  2.000000  2.000000
                       2.000000  2.000000  2.000000  2.000000  2.000000  2.000000
                       2.000000  2.000000  2.000000  2.000000  2.000000  2.000000
                       2.000000  2.000000  2.000000  2.000000  2.000000  2.000000
                       2.000000  2.000000  2.000000  2.000000  2.000000  2.000000
                       2.000000  2.000000  2.000000  2.000000  2.000000  2.000000
                       2.000000  2.000000  2.000000  2.000000  2.000000  2.000000
                       2.000000  2.000000  2.000000  2.000000  2.000000  2.000000
                       0.000000  0.000000  0.000000
           prtdos           2
           shiftk      5.00000000E-01  5.00000000E-01  5.00000000E-01
          spgroup           1
           strten      8.9461207447E-04 -2.5965358764E-03  1.2445836056E-02
                       7.6459871709E-05 -2.1436248115E-03 -2.0225492814E-04
           toldfe      1.00000000E-02 Hartree
            typat      1  1  1  1  2  2  2  2  2  2  2  2  3  3  3  3  3  3  3  3
              wtk        0.50000    0.50000
           xangst      0.0000000000E+00  0.0000000000E+00  0.0000000000E+00
                       0.0000000000E+00  0.0000000000E+00  4.5936815123E+00
                       2.2968407562E+00  1.4793678043E+00  2.2968407562E+00
                       2.2968407562E+00  1.4793678043E+00  6.8905222685E+00
                       3.9876836484E+01  0.0000000000E+00  1.4240158683E+00
                       3.9876836484E+01  0.0000000000E+00  6.0176973806E+00
                       3.1696656440E+00  0.0000000000E+00  3.1696656440E+00
                       3.1696656440E+00  0.0000000000E+00  7.7633471563E+00
                       8.7282488785E-01  1.4793678043E+00  3.7208566245E+00
                       8.7282488785E-01  1.4793678043E+00  8.3145381368E+00
                       3.7208566245E+00  1.4793678043E+00  8.7282488785E-01
                       3.7208566245E+00  1.4793678043E+00  5.4665064002E+00
                       8.7282488785E-01  0.0000000000E+00  1.2097837672E+01
                       8.7282488785E-01  0.0000000000E+00  1.5988560180E+01
                       1.9453612542E+00  1.3755961537E+00  1.3473433826E+01
                       1.9453612542E+00  1.3755961537E+00  1.7364156334E+01
                       1.9453612542E+00 -1.3755961537E+00  1.3473433826E+01
                       1.9453612542E+00 -1.3755961537E+00  1.7364156334E+01
                       0.0000000000E+00  0.0000000000E+00  1.4848977062E+01
                       0.0000000000E+00  0.0000000000E+00  1.8739699570E+01
            xcart      0.0000000000E+00  0.0000000000E+00  0.0000000000E+00
                       0.0000000000E+00  0.0000000000E+00  8.6808000000E+00
                       4.3404000000E+00  2.7956000000E+00  4.3404000000E+00
                       4.3404000000E+00  2.7956000000E+00  1.3021200000E+01
                       7.5356300000E+01  0.0000000000E+00  2.6910000000E+00
                       7.5356300000E+01  0.0000000000E+00  1.1371800000E+01
                       5.9898000000E+00  0.0000000000E+00  5.9898000000E+00
                       5.9898000000E+00  0.0000000000E+00  1.4670600000E+01
                       1.6494000000E+00  2.7956000000E+00  7.0314000000E+00
                       1.6494000000E+00  2.7956000000E+00  1.5712200000E+01
                       7.0314000000E+00  2.7956000000E+00  1.6494000000E+00
                       7.0314000000E+00  2.7956000000E+00  1.0330200000E+01
                       1.6494000000E+00  0.0000000000E+00  2.2861600000E+01
                       1.6494000000E+00  0.0000000000E+00  3.0214000000E+01
                       3.6762000000E+00  2.5995000000E+00  2.5461100000E+01
                       3.6762000000E+00  2.5995000000E+00  3.2813500000E+01
                       3.6762000000E+00 -2.5995000000E+00  2.5461100000E+01
                       3.6762000000E+00 -2.5995000000E+00  3.2813500000E+01
                       0.0000000000E+00  0.0000000000E+00  2.8060500000E+01
                       0.0000000000E+00  0.0000000000E+00  3.5412900000E+01
             xred      0.0000000000E+00  0.0000000000E+00  0.0000000000E+00
                       0.0000000000E+00  0.0000000000E+00  1.9290666667E-01
                       5.0000000000E-01  3.2204405124E-01  9.6453333333E-02
                       5.0000000000E-01  3.2204405124E-01  2.8936000000E-01
                       8.6808013086E+00  0.0000000000E+00  5.9800000000E-02
                       8.6808013086E+00  0.0000000000E+00  2.5270666667E-01
                       6.9000552944E-01  0.0000000000E+00  1.3310666667E-01
                       6.9000552944E-01  0.0000000000E+00  3.2601333333E-01
                       1.9000552944E-01  3.2204405124E-01  1.5625333333E-01
                       1.9000552944E-01  3.2204405124E-01  3.4916000000E-01
                       8.0999447056E-01  3.2204405124E-01  3.6653333333E-02
                       8.0999447056E-01  3.2204405124E-01  2.2956000000E-01
                       1.9000552944E-01  0.0000000000E+00  5.0803555556E-01
                       1.9000552944E-01  0.0000000000E+00  6.7142222222E-01
                       4.2348631463E-01  2.9945396738E-01  5.6580222222E-01
                       4.2348631463E-01  2.9945396738E-01  7.2918888889E-01
                       4.2348631463E-01 -2.9945396738E-01  5.6580222222E-01
                       4.2348631463E-01 -2.9945396738E-01  7.2918888889E-01
                       0.0000000000E+00  0.0000000000E+00  6.2356666667E-01
                       0.0000000000E+00  0.0000000000E+00  7.8695333333E-01
            znucl       22.00000    8.00000   46.00000

================================================================================

- Total cpu        time (s,m,h):       2351.8       39.20      0.653
- Total wall clock time (s,m,h):       2357.0       39.28      0.655
-
- For major independent code sections, cpu and wall times (sec),
-  as well as % of the time and number of calls for node 0-
-<BEGIN_TIMER mpi_nprocs = 1, omp_nthreads = 1, mpi_rank = 0>
- cpu_time =         2351.8, wall_time =         2357.0
-
- routine                        cpu     %       wall     %      number of calls  Gflops    Speedup Efficacity
-                                                                  (-1=no count)
- projbd                       858.484  36.5    858.820  36.4          23430      -1.00        1.00       1.00
- nonlop(apply)                647.312  27.5    649.994  27.6          14667      -1.00        1.00       1.00
- fourwf%(pot)                 433.750  18.4    434.645  18.4          14667      -1.00        1.00       1.00
- vtowfk(ssdiag)               146.922   6.2    147.612   6.3             -1      -1.00        1.00       1.00
- fourwf%(den)                  41.438   1.8     41.289   1.8           2400      -1.00        1.00       1.00
- nonlop(forstr)                32.484   1.4     32.690   1.4            240      -1.00        0.99       0.99
- others (107)                  36.000   1.5     36.454   1.5             -1      -1.00        0.99       0.99
-<END_TIMER>
-
- subtotal                    2196.391  93.4   2201.504  93.4                                  1.00       1.00

- For major independent code sections, cpu and wall times (sec),
- as well as % of the total time and number of calls 

-<BEGIN_TIMER mpi_nprocs = 1, omp_nthreads = 1, mpi_rank = world>
- cpu_time =        2351.8, wall_time =        2357.0
-
- routine                         cpu     %       wall     %      number of calls Gflops    Speedup Efficacity
-                                                                  (-1=no count)
- projbd                       858.484  36.5    858.820  36.4          23430      -1.00        1.00       1.00
- nonlop(apply)                647.312  27.5    649.994  27.6          14667      -1.00        1.00       1.00
- fourwf%(pot)                 433.750  18.4    434.645  18.4          14667      -1.00        1.00       1.00
- vtowfk(ssdiag)               146.922   6.2    147.612   6.3             -1      -1.00        1.00       1.00
- fourwf%(den)                  41.438   1.8     41.289   1.8           2400      -1.00        1.00       1.00
- nonlop(forstr)                32.484   1.4     32.690   1.4            240      -1.00        0.99       0.99
- others (107)                  36.000   1.5     36.454   1.5             -1      -1.00        0.99       0.99
-<END_TIMER>

- subtotal                    2196.391  93.4   2201.504  93.4                                  1.00       1.00

================================================================================

 Suggested references for the acknowledgment of ABINIT usage.

 The users of ABINIT have little formal obligations with respect to the ABINIT group
 (those specified in the GNU General Public License, http://www.gnu.org/copyleft/gpl.txt).
 However, it is common practice in the scientific literature,
 to acknowledge the efforts of people that have made the research possible.
 In this spirit, please find below suggested citations of work written by ABINIT developers,
 corresponding to implementations inside of ABINIT that you have used in the present run.
 Note also that it will be of great value to readers of publications presenting these results,
 to read papers enabling them to understand the theoretical formalism and details
 of the ABINIT implementation.
 For information on why they are suggested, see also https://www.abinit.org/about/?text=acknowledgments.
-
- [1] Recent developments in the ABINIT software package.
- Computer Phys. Comm. 205, 106 (2016).
- X.Gonze, F.Jollet, F.Abreu Araujo, D.Adams, B.Amadon, T.Applencourt,
- C.Audouze, J.-M.Beuken, J.Bieder, A.Bokhanchuk, E.Bousquet, F.Bruneval
- D.Caliste, M.Cote, F.Dahm, F.Da Pieve, M.Delaveau, M.Di Gennaro,
- B.Dorado, C.Espejo, G.Geneste, L.Genovese, A.Gerossier, M.Giantomassi,
- Y.Gillet, D.R.Hamann, L.He, G.Jomard, J.Laflamme Janssen, S.Le Roux,
- A.Levitt, A.Lherbier, F.Liu, I.Lukacevic, A.Martin, C.Martins,
- M.J.T.Oliveira, S.Ponce, Y.Pouillon, T.Rangel, G.-M.Rignanese,
- A.H.Romero, B.Rousseau, O.Rubel, A.A.Shukri, M.Stankovski, M.Torrent,
- M.J.Van Setten, B.Van Troeye, M.J.Verstraete, D.Waroquier, J.Wiktor,
- B.Xue, A.Zhou, J.W.Zwanziger.
- Comment : the fourth generic paper describing the ABINIT project.
- Note that a version of this paper, that is not formatted for Computer Phys. Comm. 
- is available at https://www.abinit.org/about/ABINIT16.pdf .
- The licence allows the authors to put it on the Web.
-
- [2] Optimized norm-conserving Vanderbilt pseudopotentials.
- D.R. Hamann, Phys. Rev. B 88, 085117 (2013).
- Comment: Some pseudopotential generated using the ONCVPSP code were used.
-
- [3] ABINIT : First-principles approach of materials and nanosystem properties.
- Computer Phys. Comm. 180, 2582-2615 (2009).
- X. Gonze, B. Amadon, P.-M. Anglade, J.-M. Beuken, F. Bottin, P. Boulanger, F. Bruneval,
- D. Caliste, R. Caracas, M. Cote, T. Deutsch, L. Genovese, Ph. Ghosez, M. Giantomassi
- S. Goedecker, D.R. Hamann, P. Hermet, F. Jollet, G. Jomard, S. Leroux, M. Mancini, S. Mazevet,
- M.J.T. Oliveira, G. Onida, Y. Pouillon, T. Rangel, G.-M. Rignanese, D. Sangalli, R. Shaltaf,
- M. Torrent, M.J. Verstraete, G. Zerah, J.W. Zwanziger
- Comment : the third generic paper describing the ABINIT project.
- Note that a version of this paper, that is not formatted for Computer Phys. Comm. 
- is available at https://www.abinit.org/about/ABINIT_CPC_v10.pdf .
- The licence allows the authors to put it on the Web.
-
- [4] A brief introduction to the ABINIT software package.
- Z. Kristallogr. 220, 558-562 (2005).
- X. Gonze, G.-M. Rignanese, M. Verstraete, J.-M. Beuken, Y. Pouillon, R. Caracas, F. Jollet,
- M. Torrent, G. Zerah, M. Mikami, Ph. Ghosez, M. Veithen, J.-Y. Raty, V. Olevano, F. Bruneval,
- L. Reining, R. Godby, G. Onida, D.R. Hamann, and D.C. Allan.
- Comment : the second generic paper describing the ABINIT project. Note that this paper
- should be cited especially if you are using the GW part of ABINIT, as several authors
- of this part are not in the list of authors of the first or third paper.
- The .pdf of the latter paper is available at https://www.abinit.org/about/zfk_0505-06_558-562.pdf.
- Note that it should not redistributed (Copyright by Oldenburg Wissenshaftverlag,
- the licence allows the authors to put it on the Web).
-
- And optionally:
-
- [5] First-principles computation of material properties : the ABINIT software project. 
- X. Gonze, J.-M. Beuken, R. Caracas, F. Detraux, M. Fuchs, G.-M. Rignanese, L. Sindic,
- M. Verstraete, G. Zerah, F. Jollet, M. Torrent, A. Roy, M. Mikami, Ph. Ghosez, J.-Y. Raty, D.C. Allan.
- Computational Materials Science 25, 478-492 (2002). http://dx.doi.org/10.1016/S0927-0256(02)00325-7
- Comment : the original paper describing the ABINIT project.
-
- Proc.   0 individual time (sec): cpu=       2351.8  wall=       2357.0

================================================================================

 Calculation completed.
.Delivered   2 WARNINGs and   2 COMMENTs to log file.
+Overall time at end (sec) : cpu=       2351.8  wall=       2357.0
