  ABINIT 8.6.3
  
  Give name for formatted input file: 
DOSwithoutGeom2Layer.in
  Give name for formatted output file:
DOSwithoutGeom2Layer.out
  Give root name for generic input files:
DOSwithoutGeom2Layer_i
  Give root name for generic output files:
DOSwithoutGeom2Layer_o
  Give root name for generic temporary files:
DOSwithoutGeom2Layer

.Version 8.6.3 of ABINIT 
.(sequential version, prepared for a x86_64_linux_gnu5.4 computer) 

.Copyright (C) 1998-2017 ABINIT group . 
 ABINIT comes with ABSOLUTELY NO WARRANTY.
 It is free software, and you are welcome to redistribute it
 under certain conditions (GNU General Public License,
 see ~abinit/COPYING or http://www.gnu.org/copyleft/gpl.txt).

 ABINIT is a project of the Universite Catholique de Louvain,
 Corning Inc. and other collaborators, see ~abinit/doc/developers/contributors.txt .
 Please read ~abinit/doc/users/acknowledgments.html for suggested
 acknowledgments of the ABINIT effort.
 For more information, see https://www.abinit.org .

.Starting date : Mon 23 Apr 2018.
- ( at 01h20 )
  

 ++++++++++++++++++++++++++++++++++++++++++++++++++++++++++++++++++++++++++++++

 === Build Information === 
  Version       : 8.6.3
  Build target  : x86_64_linux_gnu5.4
  Build date    : 20180412

 === Compiler Suite === 
  C compiler       : gnu5.4
  C++ compiler     : gnu5.4
  Fortran compiler : gnu5.4
  CFLAGS           :  -g -O2 -mtune=native -march=native
  CXXFLAGS         :  -g -O2 -mtune=native -march=native
  FCFLAGS          :  -g -ffree-line-length-none
  FC_LDFLAGS       : 

 === Optimizations === 
  Debug level        : basic
  Optimization level : standard
  Architecture       : unknown_unknown

 === Multicore === 
  Parallel build : no
  Parallel I/O   : no
  openMP support : no
  GPU support    : no

 === Connectors / Fallbacks === 
  Connectors on : yes
  Fallbacks on  : yes
  DFT flavor    : none
  FFT flavor    : none
  LINALG flavor : netlib-fallback
  MATH flavor   : none
  TIMER flavor  : abinit
  TRIO flavor   : none

 === Experimental features === 
  Bindings            : @enable_bindings@
  Exports             : no
  GW double-precision : no

 ++++++++++++++++++++++++++++++++++++++++++++++++++++++++++++++++++++++++++++++


 ++++++++++++++++++++++++++++++++++++++++++++++++++++++++++++++++++++++++++++++
 Default optimizations:
   -O2 -mtune=native -march=native


 Optimizations for 20_datashare:
   -O0


 ++++++++++++++++++++++++++++++++++++++++++++++++++++++++++++++++++++++++++++++


 ++++++++++++++++++++++++++++++++++++++++++++++++++++++++++++++++++++++++++++++
 CPP options activated during the build:

                    CC_GNU                   CXX_GNU                    FC_GNU
 
 HAVE_FC_ALLOCATABLE_DT...             HAVE_FC_ASYNC         HAVE_FC_BACKTRACE
 
  HAVE_FC_COMMAND_ARGUMENT      HAVE_FC_COMMAND_LINE        HAVE_FC_CONTIGUOUS
 
           HAVE_FC_CPUTIME              HAVE_FC_EXIT             HAVE_FC_FLUSH
 
             HAVE_FC_GAMMA            HAVE_FC_GETENV   HAVE_FC_IEEE_EXCEPTIONS
 
          HAVE_FC_INT_QUAD             HAVE_FC_IOMSG     HAVE_FC_ISO_C_BINDING
 
  HAVE_FC_ISO_FORTRAN_2008        HAVE_FC_LONG_LINES        HAVE_FC_MOVE_ALLOC
 
           HAVE_FC_PRIVATE         HAVE_FC_PROTECTED         HAVE_FC_STREAM_IO
 
            HAVE_FC_SYSTEM          HAVE_FORTRAN2003        HAVE_LIBPAW_ABINIT
 
      HAVE_LIBTETRA_ABINIT             HAVE_OS_LINUX         HAVE_TIMER_ABINIT
 
              USE_MACROAVE                                                      
 ++++++++++++++++++++++++++++++++++++++++++++++++++++++++++++++++++++++++++++++

- input  file    -> DOSwithoutGeom2Layer.in
- output file    -> DOSwithoutGeom2Layer.out
- root for input  files -> DOSwithoutGeom2Layer_i
- root for output files -> DOSwithoutGeom2Layer_o

-instrng: 95 lines of input have been read from file DOSwithoutGeom2Layer.in


 Please give name of formatted atomic psp file
 iofn2 : for atom type 1, psp file is ../../../Psps_for_tests/Ti.psp8

 Please give name of formatted atomic psp file
 iofn2 : for atom type 2, psp file is ../../../Psps_for_tests/O.psp8

 Please give name of formatted atomic psp file
 iofn2 : for atom type 3, psp file is ../../../Psps_for_tests/Pd.psp8
  read the values zionpsp= 12.0 , pspcod=   8 , lmax=   2
  read the values zionpsp=  6.0 , pspcod=   8 , lmax=   2
  read the values zionpsp= 18.0 , pspcod=   8 , lmax=   2

 inpspheads: deduce mpsang = 3, n1xccc = 2501.
 invars1 : treat image number: 1

 symlatt : the Bravais lattice is tP (primitive tetragonal)
  xcart  is defined in input file
 ingeo : takes atomic coordinates from input array xcart
 symfind : exit, nsym=1
   symrel matrices, symafm and tnons are :
   1       1   0   0     0   1   0     0   0   1       1      0.0000  0.0000  0.0000

 symlatt : the Bravais lattice is tP (primitive tetragonal)

 symlatt : the Bravais lattice is tP (primitive tetragonal)

--- !COMMENT
src_file: symbrav.F90
src_line: 201
message: |
    The Bravais lattice determined only from the primitive
    vectors, bravais(1)=  4, is more symmetric
    than the real one, iholohedry=  1, obtained by taking into
    account the atomic positions. Start deforming the primitive vector set.
...


 symlatt : the Bravais lattice is mC (one-face-centered monoclinic)

--- !COMMENT
src_file: symbrav.F90
src_line: 210
message: |
    The Bravais lattice determined from modified primitive
    vectors, bravais(1)=  2, has a lower symmetry than before,
    but is still more symmetric than the real one, iholohedry=  1
    obtained by taking into account the atomic positions.
...


 symlatt : the Bravais lattice is aP (primitive triclinic)
 symspgr : spgroup=   1  P1   (=C1^1)
 ingeo : angdeg(1:3)=   90.00000000   90.00000000   90.00000000
 invars2: take the default value of fband=  1.25000000E-01
 chkneu : initialized the occupation numbers for occopt=    1, spin-unpolarized or antiferromagnetic case :
  2.00  2.00  2.00  2.00  2.00  2.00  2.00  2.00  2.00  2.00  2.00  2.00
  2.00  2.00  2.00  2.00  2.00  2.00  2.00  2.00  2.00  2.00  2.00  2.00
  2.00  2.00  2.00  2.00  2.00  2.00  2.00  2.00  2.00  2.00  2.00  2.00
  2.00  2.00  2.00  2.00  2.00  2.00  2.00  2.00  2.00  2.00  2.00  2.00
  2.00  2.00  2.00  2.00  2.00  2.00  2.00  2.00  2.00  2.00  2.00  2.00
  2.00  2.00  2.00  2.00  2.00  2.00  2.00  2.00  2.00  2.00  2.00  2.00
  2.00  2.00  2.00  2.00  2.00  2.00  2.00  2.00  2.00  2.00  2.00  2.00
  2.00  2.00  2.00  2.00  2.00  2.00  2.00  2.00  2.00  2.00  2.00  2.00
  2.00  2.00  2.00  2.00  2.00  2.00  2.00  2.00  2.00  2.00  2.00  2.00
  2.00  2.00  2.00  2.00  2.00  2.00  2.00  2.00  2.00  2.00  2.00  2.00
  0.00  0.00  0.00
mpi_setup: mkmem  undefined in the input file.Use default mkmem  = nkpt
 mpi_setup: With nkpt_me=2 and mkmem  = 2, ground state wf handled in core.
mpi_setup: mkqmem undefined in the input file.Use default mkqmem = nkpt
 mpi_setup: With nkpt_me=2 and mkqmem = 2, ground state wf handled in core.
mpi_setup: mk1mem undefined in the input file.Use default mk1mem = nkpt
 mpi_setup: With nkpt_me=2 and mk1mem = 2, ground state wf handled in core.
 For input ecut=  6.000000E+01 best grid ngfft=      64      64     320
       max ecut=  6.238565E+01

 ==== FFT mesh ====
  FFT mesh divisions ........................    64   64  320
  Augmented FFT divisions ...................    65   65  320
  FFT algorithm .............................   112
  FFT cache size ............................    16
 getmpw: optimal value of mpw= 75364

 Symmetries : space group P1 (#  1); Bravais aP (primitive triclinic)

 getdim_nloc : deduce lmnmax  =  18, lnmax  =   6,
                      lmnmaxso=  18, lnmaxso=   6.
memory : analysis of memory needs
================================================================================
 Values of the parameters that define the memory need of the present run
     intxc =       0    ionmov =       0      iscf =       7    lmnmax =       6
     lnmax =       6     mgfft =     320  mpssoang =       3    mqgrid =   15692
     natom =      20  nloc_mem =       1    nspden =       1   nspinor =       1
    nsppol =       1      nsym =       1    n1xccc =    2501    ntypat =       3
    occopt =       1   xclevel =       2
-    mband =         123        mffmem =           1         mkmem =           2
       mpw =       75364          nfft =     1310720          nkpt =           2
================================================================================
P This job should need less than                     681.793 Mbytes of memory.
  Rough estimation (10% accuracy) of disk space for files :
_ WF disk file :    282.893 Mbytes ; DEN or POT disk file :     10.002 Mbytes.
================================================================================

 Biggest array : cg(disk), with    282.8930 MBytes.
 memana : allocated an array of    282.893 Mbytes, for testing purposes.
 memana: allocated     681.793Mbytes, for testing purposes. 
 The job will continue.
--------------------------------------------------------------------------------
------------- Echo of variables that govern the present computation ------------
--------------------------------------------------------------------------------
-
- outvars: echo of selected default values                                      
-   iomode0 =  0 , fftalg0 =112 , wfoptalg0 =  0
-
- outvars: echo of global parameters not present in the input file              
-  max_nthreads =    0
-
 -outvars: echo values of preprocessed input variables --------
            acell      8.6808000000E+00  8.6808000000E+00  4.5000000000E+01 Bohr
              amu      4.78800000E+01  1.59994000E+01  1.06420000E+02
           diemac      1.20000000E+01
             ecut      6.00000000E+01 Hartree
-          fftalg         112
              ixc          11
              kpt      1.25000000E-01  5.00000000E-01  5.00000000E-01
                       3.75000000E-01  5.00000000E-01  5.00000000E-01
           kptopt           2
         kptrlatt        4    0    0      0    1    0      0    0    1
          kptrlen      8.68080000E+00
P           mkmem           2
            natom          20
            nband         123
            ngfft          64      64     320
             nkpt           2
             nsym           1
           ntypat           3
              occ      2.000000  2.000000  2.000000  2.000000  2.000000  2.000000
                       2.000000  2.000000  2.000000  2.000000  2.000000  2.000000
                       2.000000  2.000000  2.000000  2.000000  2.000000  2.000000
                       2.000000  2.000000  2.000000  2.000000  2.000000  2.000000
                       2.000000  2.000000  2.000000  2.000000  2.000000  2.000000
                       2.000000  2.000000  2.000000  2.000000  2.000000  2.000000
                       2.000000  2.000000  2.000000  2.000000  2.000000  2.000000
                       2.000000  2.000000  2.000000  2.000000  2.000000  2.000000
                       2.000000  2.000000  2.000000  2.000000  2.000000  2.000000
                       2.000000  2.000000  2.000000  2.000000  2.000000  2.000000
                       2.000000  2.000000  2.000000  2.000000  2.000000  2.000000
                       2.000000  2.000000  2.000000  2.000000  2.000000  2.000000
                       2.000000  2.000000  2.000000  2.000000  2.000000  2.000000
                       2.000000  2.000000  2.000000  2.000000  2.000000  2.000000
                       2.000000  2.000000  2.000000  2.000000  2.000000  2.000000
                       2.000000  2.000000  2.000000  2.000000  2.000000  2.000000
                       2.000000  2.000000  2.000000  2.000000  2.000000  2.000000
                       2.000000  2.000000  2.000000  2.000000  2.000000  2.000000
                       2.000000  2.000000  2.000000  2.000000  2.000000  2.000000
                       2.000000  2.000000  2.000000  2.000000  2.000000  2.000000
                       0.000000  0.000000  0.000000
           prtdos           2
           shiftk      5.00000000E-01  5.00000000E-01  5.00000000E-01
          spgroup           1
           toldfe      1.00000000E-02 Hartree
            typat      1  1  1  1  2  2  2  2  2  2  2  2  3  3  3  3  3  3  3  3
              wtk        0.50000    0.50000
           xangst      0.0000000000E+00  0.0000000000E+00  0.0000000000E+00
                       0.0000000000E+00  0.0000000000E+00  4.5936815123E+00
                       2.2968407562E+00  1.4793678043E+00  2.2968407562E+00
                       2.2968407562E+00  1.4793678043E+00  6.8905222685E+00
                       3.9876836484E+01  0.0000000000E+00  1.4240158683E+00
                       3.9876836484E+01  0.0000000000E+00  6.0176973806E+00
                       3.1696656440E+00  0.0000000000E+00  3.1696656440E+00
                       3.1696656440E+00  0.0000000000E+00  7.7633471563E+00
                       8.7282488785E-01  1.4793678043E+00  3.7208566245E+00
                       8.7282488785E-01  1.4793678043E+00  8.3145381368E+00
                       3.7208566245E+00  1.4793678043E+00  8.7282488785E-01
                       3.7208566245E+00  1.4793678043E+00  5.4665064002E+00
                       8.7282488785E-01  0.0000000000E+00  1.2097837672E+01
                       8.7282488785E-01  0.0000000000E+00  1.5988560180E+01
                       1.9453612542E+00  1.3755961537E+00  1.3473433826E+01
                       1.9453612542E+00  1.3755961537E+00  1.7364156334E+01
                       1.9453612542E+00 -1.3755961537E+00  1.3473433826E+01
                       1.9453612542E+00 -1.3755961537E+00  1.7364156334E+01
                       0.0000000000E+00  0.0000000000E+00  1.4848977062E+01
                       0.0000000000E+00  0.0000000000E+00  1.8739699570E+01
            xcart      0.0000000000E+00  0.0000000000E+00  0.0000000000E+00
                       0.0000000000E+00  0.0000000000E+00  8.6808000000E+00
                       4.3404000000E+00  2.7956000000E+00  4.3404000000E+00
                       4.3404000000E+00  2.7956000000E+00  1.3021200000E+01
                       7.5356300000E+01  0.0000000000E+00  2.6910000000E+00
                       7.5356300000E+01  0.0000000000E+00  1.1371800000E+01
                       5.9898000000E+00  0.0000000000E+00  5.9898000000E+00
                       5.9898000000E+00  0.0000000000E+00  1.4670600000E+01
                       1.6494000000E+00  2.7956000000E+00  7.0314000000E+00
                       1.6494000000E+00  2.7956000000E+00  1.5712200000E+01
                       7.0314000000E+00  2.7956000000E+00  1.6494000000E+00
                       7.0314000000E+00  2.7956000000E+00  1.0330200000E+01
                       1.6494000000E+00  0.0000000000E+00  2.2861600000E+01
                       1.6494000000E+00  0.0000000000E+00  3.0214000000E+01
                       3.6762000000E+00  2.5995000000E+00  2.5461100000E+01
                       3.6762000000E+00  2.5995000000E+00  3.2813500000E+01
                       3.6762000000E+00 -2.5995000000E+00  2.5461100000E+01
                       3.6762000000E+00 -2.5995000000E+00  3.2813500000E+01
                       0.0000000000E+00  0.0000000000E+00  2.8060500000E+01
                       0.0000000000E+00  0.0000000000E+00  3.5412900000E+01
             xred      0.0000000000E+00  0.0000000000E+00  0.0000000000E+00
                       0.0000000000E+00  0.0000000000E+00  1.9290666667E-01
                       5.0000000000E-01  3.2204405124E-01  9.6453333333E-02
                       5.0000000000E-01  3.2204405124E-01  2.8936000000E-01
                       8.6808013086E+00  0.0000000000E+00  5.9800000000E-02
                       8.6808013086E+00  0.0000000000E+00  2.5270666667E-01
                       6.9000552944E-01  0.0000000000E+00  1.3310666667E-01
                       6.9000552944E-01  0.0000000000E+00  3.2601333333E-01
                       1.9000552944E-01  3.2204405124E-01  1.5625333333E-01
                       1.9000552944E-01  3.2204405124E-01  3.4916000000E-01
                       8.0999447056E-01  3.2204405124E-01  3.6653333333E-02
                       8.0999447056E-01  3.2204405124E-01  2.2956000000E-01
                       1.9000552944E-01  0.0000000000E+00  5.0803555556E-01
                       1.9000552944E-01  0.0000000000E+00  6.7142222222E-01
                       4.2348631463E-01  2.9945396738E-01  5.6580222222E-01
                       4.2348631463E-01  2.9945396738E-01  7.2918888889E-01
                       4.2348631463E-01 -2.9945396738E-01  5.6580222222E-01
                       4.2348631463E-01 -2.9945396738E-01  7.2918888889E-01
                       0.0000000000E+00  0.0000000000E+00  6.2356666667E-01
                       0.0000000000E+00  0.0000000000E+00  7.8695333333E-01
            znucl       22.00000    8.00000   46.00000

================================================================================

 chkinp: Checking input parameters for consistency.
 DATA TYPE INFORMATION: 
 REAL:      Data type name: REAL(DP) 
            Kind value:      8
            Precision:      15
            Smallest nonnegligible quantity relative to 1:  0.22204460E-15
            Smallest positive number:                       0.22250739-307
            Largest representable number:                   0.17976931+309
 INTEGER:   Data type name: INTEGER(default) 
            Kind value: 4
            Bit size:   32
            Largest representable number: 2147483647
 LOGICAL:   Data type name: LOGICAL 
            Kind value: 4
 CHARACTER: Data type name: CHARACTER             Kind value: 1

  ==== OpenMP parallelism is OFF ====
 
  MPI-IO support is OFF

================================================================================
== DATASET  1 ==================================================================
-   nproc =    1


 getdim_nloc : deduce lmnmax  =  18, lnmax  =   6,
                      lmnmaxso=  18, lnmaxso=   6.
 Exchange-correlation functional for the present dataset will be:
  GGA: Perdew-Burke-Ernzerhof functional - ixc=11
 Citation for XC functional:
  J.P.Perdew, K.Burke, M.Ernzerhof, PRL 77, 3865 (1996)

 Unit cell volume ucvol=  3.3910330E+03 bohr^3
 Angles (23,13,12)=  9.00000000E+01  9.00000000E+01  9.00000000E+01 degrees

 getcut: wavevector=  0.0000  0.0000  0.0000  ngfft=  64  64 320
         ecut(hartree)=     60.000   => boxcut(ratio)=   2.03937
- pspini: atom type   1  psp file is ../../../Psps_for_tests/Ti.psp8
- pspatm: opening atomic psp file    ../../../Psps_for_tests/Ti.psp8
- Ti    ONCVPSP-3.2.3.1  r_core=   1.35825   1.31050   1.66360
- 22.00000  12.00000    170504                znucl, zion, pspdat
    8   11    2    4       600   0.00000      pspcod,pspxc,lmax,lloc,mmax,r2well
    5.99000000000000    2.50000000000000    0.00000000000000   rchrg,fchrg,qchrg
     nproj     2     2     2
     extension_switch     1
 valence charge integrates to:    11.889184549573358     
  pspatm : epsatm=   14.68144390
         --- l  ekb(1:nproj) -->
             0   11.362348    1.263639
             1    1.975402   -0.084666
             2   -5.186090   -1.477451
 pspatm: atomic psp has been read  and splines computed

- pspini: atom type   2  psp file is ../../../Psps_for_tests/O.psp8
- pspatm: opening atomic psp file    ../../../Psps_for_tests/O.psp8
- O     ONCVPSP-3.2.3.1  r_core=   1.35509   1.45563   1.26150
-  8.00000   6.00000    170504                znucl, zion, pspdat
    8   11    2    4       600   0.00000      pspcod,pspxc,lmax,lloc,mmax,r2well
    5.99000000000000    4.00000000000000    0.00000000000000   rchrg,fchrg,qchrg
     nproj     2     2     1
     extension_switch     1
 valence charge integrates to:    5.9990318752405338     
  pspatm : epsatm=    6.19546011
         --- l  ekb(1:nproj) -->
             0    6.056735    0.824024
             1   -4.717130   -1.149271
             2   -1.331955
 pspatm: atomic psp has been read  and splines computed

- pspini: atom type   3  psp file is ../../../Psps_for_tests/Pd.psp8
- pspatm: opening atomic psp file    ../../../Psps_for_tests/Pd.psp8
- Pd    ONCVPSP-3.2.3.1  r_core=   1.41052   1.46191   1.55175
- 46.00000  18.00000    170510                znucl, zion, pspdat
    8   11    2    4       600   0.00000      pspcod,pspxc,lmax,lloc,mmax,r2well
    5.99000000000000    7.00000000000000    0.00000000000000   rchrg,fchrg,qchrg
     nproj     2     2     2
     extension_switch     1
 valence charge integrates to:    17.981740865694604     
  pspatm : epsatm=   26.09224486
         --- l  ekb(1:nproj) -->
             0    7.845850   -2.282160
             1    3.261104   -0.686948
             2   -1.134855   -0.401224
 pspatm: atomic psp has been read  and splines computed

   7.60865797E+04                                ecore*ucvol(ha*bohr**3)
 ==== Info on pseudopotentials ====
  Norm-conserving pseudopotentials
  Number of pseudopotentials ..    3
  Number of types of atoms   ..    3
  Scalar calculation (no spin-orbit term)
  Nonlocal part applied using Legendre polynomials
  Max number of non-local projectors over l and type   2
  Highest angular momentum +1 .......   3
  Max number of (l,n)   components ..   6
  Max number of (l,m,n) components ..   6

 Pseudo-Core Charge Info: 
   Number of radial points for pseudo-core charge .. 2501
   XC core-correction treatment (optnlxccc) ........    1
   Radius for pseudo-core charge for each type ..... 

  - Atom type    1 has pseudo-core radius ..  5.9900
  - Atom type    2 has pseudo-core radius ..  5.9900
  - Atom type    3 has pseudo-core radius ..  5.9900

 Info on the Q-grid used for form factors in spline form: 
   Number of q-points for radial functions ffspl ..  15692
   Number of q-points for vlspl ...................  15692
   vloc is computed in Reciprocal Space
   model core charge treated in real-space

  XC functional for type 1 is 11
  Pseudo valence available: yes
  XC functional for type 2 is 11
  Pseudo valence available: yes
  XC functional for type 3 is 11
  Pseudo valence available: yes

 wfconv:   123 bands initialized randomly with npw= 75232, for ikpt=     1
 wfconv:   123 bands initialized randomly with npw= 75364, for ikpt=     2
_setup2: Arith. and geom. avg. npw (full set) are   75298.000   75297.971
 initro: for itypat=  1, take pseudo charge density from pp file
 initro: for itypat=  2, take pseudo charge density from pp file
 initro: for itypat=  3, take pseudo charge density from pp file

================================================================================

 getcut: wavevector=  0.0000  0.0000  0.0000  ngfft=  64  64 320
         ecut(hartree)=     60.000   => boxcut(ratio)=   2.03937

--- !WARNING
src_file: m_ewald.F90
src_line: 145
message: |
    Very large box of G neighbors in ewald: you probably do not want to do this.
     If you have a metal consider setting dipdip 0.  ng =         30
...


 ITER STEP NUMBER     1
 vtorho : nnsclo_now=2, note that nnsclo,dbl_nnsclo,istep=0 0 1
 non-scf iterations; kpt #     1  , k= (  0.12500  0.50000  0.50000  ), band residuals:
 res:  2.67E+00  4.68E+00  3.35E+00  3.60E+00  3.58E+00  3.66E+00  3.45E+00  3.09E+00
 res:  3.45E+00  2.86E+00  2.51E+00  2.21E+00  2.35E+00  2.66E+00  2.50E+00  2.20E+00
 res:  2.08E+00  1.97E+00  1.87E+00  2.01E+00  1.78E+00  1.99E+00  1.92E+00  1.81E+00
 res:  1.97E+00  1.75E+00  2.06E+00  2.01E+00  1.75E+00  1.76E+00  1.86E+00  1.89E+00
 res:  1.79E+00  1.74E+00  1.70E+00  1.68E+00  1.84E+00  1.64E+00  1.80E+00  1.81E+00
 res:  1.67E+00  1.81E+00  1.67E+00  1.72E+00  1.71E+00  1.64E+00  1.55E+00  1.71E+00
 res:  1.32E+00  1.58E+00  1.33E+00  1.13E+00  1.03E+00  9.95E-01  9.61E-01  1.02E+00
 res:  8.87E-01  8.08E-01  7.71E-01  7.87E-01  6.88E-01  7.16E-01  6.91E-01  7.79E-01
 res:  7.82E-01  7.25E-01  6.81E-01  6.78E-01  5.97E-01  6.23E-01  6.32E-01  6.45E-01
 res:  6.54E-01  6.38E-01  7.05E-01  6.31E-01  5.59E-01  6.32E-01  6.02E-01  6.71E-01
 res:  6.37E-01  6.78E-01  6.31E-01  5.98E-01  6.28E-01  5.57E-01  6.53E-01  6.05E-01
 res:  5.64E-01  5.54E-01  4.91E-01  5.51E-01  5.88E-01  6.15E-01  5.21E-01  5.64E-01
 res:  5.97E-01  5.54E-01  6.05E-01  6.01E-01  4.91E-01  5.23E-01  4.96E-01  5.36E-01
 res:  5.88E-01  5.78E-01  5.17E-01  4.77E-01  5.01E-01  6.04E-01  5.59E-01  5.62E-01
 res:  5.58E-01  6.03E-01  5.27E-01  5.01E-01  4.67E-01  5.56E-01  5.06E-01  4.77E-01
 res:  5.15E-01  4.99E-01  5.43E-01
 ene: -2.54E+00 -2.39E+00 -2.37E+00 -2.33E+00 -2.30E+00 -2.25E+00 -2.22E+00 -2.19E+00
 ene: -1.76E+00 -1.62E+00 -1.60E+00 -1.55E+00 -1.50E+00 -1.42E+00 -1.38E+00 -1.36E+00
 ene: -1.35E+00 -1.34E+00 -1.32E+00 -1.32E+00 -1.30E+00 -1.29E+00 -1.29E+00 -1.27E+00
 ene: -1.26E+00 -1.24E+00 -1.24E+00 -1.21E+00 -1.21E+00 -1.18E+00 -1.16E+00 -1.15E+00
 ene: -1.12E+00 -1.10E+00 -1.07E+00 -1.04E+00 -8.98E-01 -8.90E-01 -8.69E-01 -8.55E-01
 ene: -8.39E-01 -8.24E-01 -8.19E-01 -7.88E-01 -7.71E-01 -7.53E-01 -7.33E-01 -7.04E-01
 ene: -5.68E-01 -5.47E-01 -5.20E-01 -4.74E-01 -4.64E-01 -4.20E-01 -4.13E-01 -3.91E-01
 ene: -7.40E-02 -6.04E-02 -4.82E-02 -2.79E-02 -2.10E-02 -7.82E-03  8.67E-03  2.46E-02
 ene:  3.52E-02  4.44E-02  5.47E-02  6.80E-02  7.79E-02  8.68E-02  9.67E-02  1.03E-01
 ene:  1.14E-01  1.22E-01  1.37E-01  1.48E-01  1.57E-01  1.66E-01  1.76E-01  1.81E-01
 ene:  1.89E-01  2.03E-01  2.10E-01  2.22E-01  2.26E-01  2.34E-01  2.41E-01  2.51E-01
 ene:  2.62E-01  2.68E-01  2.70E-01  2.86E-01  2.93E-01  2.99E-01  3.03E-01  3.19E-01
 ene:  3.26E-01  3.36E-01  3.44E-01  3.51E-01  3.54E-01  3.60E-01  3.73E-01  3.87E-01
 ene:  3.96E-01  3.98E-01  4.09E-01  4.23E-01  4.28E-01  4.38E-01  4.48E-01  4.63E-01
 ene:  4.75E-01  4.83E-01  5.02E-01  5.13E-01  5.24E-01  5.31E-01  5.58E-01  5.73E-01
 ene:  5.79E-01  6.33E-01  7.04E-01
 res:  1.70E-01  1.20E-01  1.37E-01  1.28E-01  1.44E-01  1.48E-01  1.44E-01  1.61E-01
 res:  3.06E-02  5.66E-02  5.16E-02  5.96E-02  6.27E-02  3.33E-02  2.58E-02  2.89E-02
 res:  2.73E-02  2.39E-02  3.08E-02  2.30E-02  2.87E-02  2.70E-02  3.80E-02  2.69E-02
 res:  3.64E-02  3.84E-02  3.69E-02  4.35E-02  3.38E-02  4.69E-02  4.21E-02  4.43E-02
 res:  5.54E-02  5.30E-02  7.28E-02  5.64E-02  2.50E-02  2.53E-02  3.44E-02  2.89E-02
 res:  3.34E-02  4.45E-02  3.82E-02  4.56E-02  4.36E-02  5.06E-02  4.94E-02  7.15E-02
 res:  3.12E-02  3.31E-02  2.85E-02  3.31E-02  2.74E-02  2.95E-02  3.96E-02  2.83E-02
 res:  2.64E-02  2.71E-02  2.81E-02  2.77E-02  2.97E-02  2.74E-02  2.84E-02  3.07E-02
 res:  3.09E-02  3.35E-02  4.15E-02  3.74E-02  3.62E-02  4.18E-02  3.84E-02  4.41E-02
 res:  4.62E-02  4.34E-02  4.80E-02  4.68E-02  4.80E-02  5.44E-02  3.82E-02  4.62E-02
 res:  4.75E-02  4.60E-02  3.97E-02  4.75E-02  5.47E-02  5.27E-02  4.26E-02  5.57E-02
 res:  5.21E-02  4.75E-02  4.54E-02  5.23E-02  4.67E-02  4.86E-02  5.52E-02  5.59E-02
 res:  6.14E-02  6.15E-02  6.62E-02  7.07E-02  5.08E-02  5.25E-02  6.31E-02  6.86E-02
 res:  6.75E-02  6.63E-02  7.16E-02  7.19E-02  7.51E-02  7.43E-02  8.32E-02  7.50E-02
 res:  8.74E-02  7.80E-02  9.80E-02  8.99E-02  8.63E-02  1.07E-01  9.26E-02  1.05E-01
 res:  1.01E-01  1.00E-01  1.04E-01
 ene: -3.11E+00 -2.90E+00 -2.89E+00 -2.87E+00 -2.87E+00 -2.86E+00 -2.86E+00 -2.85E+00
 ene: -2.03E+00 -2.03E+00 -2.03E+00 -2.02E+00 -1.99E+00 -1.75E+00 -1.75E+00 -1.71E+00
 ene: -1.71E+00 -1.64E+00 -1.64E+00 -1.63E+00 -1.63E+00 -1.63E+00 -1.63E+00 -1.62E+00
 ene: -1.62E+00 -1.61E+00 -1.61E+00 -1.61E+00 -1.60E+00 -1.60E+00 -1.60E+00 -1.60E+00
 ene: -1.60E+00 -1.58E+00 -1.58E+00 -1.46E+00 -1.18E+00 -1.18E+00 -1.17E+00 -1.17E+00
 ene: -1.17E+00 -1.16E+00 -1.16E+00 -1.16E+00 -1.15E+00 -1.15E+00 -1.15E+00 -1.15E+00
 ene: -8.13E-01 -8.09E-01 -7.33E-01 -7.16E-01 -7.05E-01 -6.51E-01 -6.50E-01 -6.30E-01
 ene: -2.91E-01 -2.68E-01 -2.56E-01 -2.48E-01 -2.39E-01 -2.28E-01 -2.06E-01 -1.97E-01
 ene: -1.88E-01 -1.77E-01 -1.74E-01 -1.68E-01 -1.63E-01 -1.55E-01 -1.44E-01 -1.42E-01
 ene: -1.34E-01 -1.28E-01 -1.25E-01 -1.21E-01 -1.00E-01 -8.78E-02 -6.66E-02 -3.58E-02
 ene: -1.89E-02 -1.37E-02 -7.18E-03 -3.71E-04  1.38E-02  2.25E-02  2.35E-02  2.92E-02
 ene:  3.41E-02  4.60E-02  4.91E-02  6.43E-02  6.85E-02  7.55E-02  8.32E-02  8.74E-02
 ene:  9.27E-02  9.76E-02  1.10E-01  1.14E-01  1.19E-01  1.22E-01  1.30E-01  1.36E-01
 ene:  1.43E-01  1.48E-01  1.52E-01  1.56E-01  1.60E-01  1.70E-01  1.77E-01  1.83E-01
 ene:  1.88E-01  1.90E-01  1.98E-01  2.10E-01  2.15E-01  2.28E-01  2.37E-01  2.43E-01
 ene:  2.53E-01  2.68E-01  2.87E-01
 vtowfk : number of one-way 3D ffts skipped in vtowfk until now =3
     eigenvalues (hartree) for  123  bands
              after    3 non-SCF iterations with    4 CG line minimizations
 -3.1084E+00 -2.8959E+00 -2.8940E+00 -2.8663E+00 -2.8656E+00 -2.8599E+00
 -2.8560E+00 -2.8452E+00 -2.0301E+00 -2.0288E+00 -2.0256E+00 -2.0232E+00
 -1.9897E+00 -1.7526E+00 -1.7514E+00 -1.7135E+00 -1.7117E+00 -1.6409E+00
 -1.6401E+00 -1.6333E+00 -1.6326E+00 -1.6302E+00 -1.6282E+00 -1.6220E+00
 -1.6174E+00 -1.6132E+00 -1.6119E+00 -1.6052E+00 -1.6038E+00 -1.6024E+00
 -1.5976E+00 -1.5964E+00 -1.5952E+00 -1.5819E+00 -1.5762E+00 -1.4617E+00
 -1.1795E+00 -1.1763E+00 -1.1690E+00 -1.1674E+00 -1.1652E+00 -1.1632E+00
 -1.1609E+00 -1.1600E+00 -1.1548E+00 -1.1520E+00 -1.1481E+00 -1.1462E+00
 -8.1263E-01 -8.0852E-01 -7.3257E-01 -7.1608E-01 -7.0495E-01 -6.5112E-01
 -6.5048E-01 -6.2973E-01 -2.9061E-01 -2.6810E-01 -2.5573E-01 -2.4798E-01
 -2.3855E-01 -2.2822E-01 -2.0630E-01 -1.9697E-01 -1.8765E-01 -1.7736E-01
 -1.7443E-01 -1.6840E-01 -1.6284E-01 -1.5512E-01 -1.4415E-01 -1.4162E-01
 -1.3353E-01 -1.2831E-01 -1.2488E-01 -1.2091E-01 -1.0041E-01 -8.7847E-02
 -6.6630E-02 -3.5824E-02 -1.8877E-02 -1.3677E-02 -7.1773E-03 -3.7117E-04
  1.3766E-02  2.2489E-02  2.3498E-02  2.9190E-02  3.4144E-02  4.5991E-02
  4.9138E-02  6.4253E-02  6.8528E-02  7.5467E-02  8.3172E-02  8.7418E-02
  9.2668E-02  9.7643E-02  1.0964E-01  1.1352E-01  1.1943E-01  1.2154E-01
  1.3016E-01  1.3634E-01  1.4270E-01  1.4767E-01  1.5196E-01  1.5582E-01
  1.5952E-01  1.7004E-01  1.7714E-01  1.8349E-01  1.8845E-01  1.9024E-01
  1.9810E-01  2.0970E-01  2.1531E-01  2.2838E-01  2.3740E-01  2.4279E-01
  2.5295E-01  2.6767E-01  2.8697E-01
 non-scf iterations; kpt #     2  , k= (  0.37500  0.50000  0.50000  ), band residuals:
 res:  3.47E+00  4.85E+00  3.68E+00  3.20E+00  7.76E+00  7.19E+00  7.02E+00  3.26E+00
 res:  2.78E+00  3.46E+00  2.79E+00  2.66E+00  2.45E+00  2.17E+00  2.46E+00  2.15E+00
 res:  2.04E+00  1.96E+00  1.95E+00  2.00E+00  2.01E+00  2.02E+00  1.87E+00  1.93E+00
 res:  1.94E+00  1.80E+00  1.92E+00  1.86E+00  1.77E+00  1.95E+00  1.79E+00  1.77E+00
 res:  1.89E+00  1.78E+00  1.89E+00  1.86E+00  1.78E+00  1.87E+00  1.64E+00  1.67E+00
 res:  1.61E+00  1.65E+00  1.67E+00  1.50E+00  1.63E+00  1.39E+00  1.33E+00  1.32E+00
 res:  1.63E+00  1.51E+00  1.40E+00  1.35E+00  1.40E+00  1.14E+00  8.07E-01  9.32E-01
 res:  9.40E-01  8.58E-01  8.54E-01  8.07E-01  7.18E-01  6.79E-01  8.68E-01  6.53E-01
 res:  8.37E-01  6.84E-01  7.08E-01  6.13E-01  7.25E-01  6.17E-01  6.97E-01  6.83E-01
 res:  6.28E-01  6.04E-01  7.40E-01  6.63E-01  5.89E-01  5.84E-01  6.94E-01  5.90E-01
 res:  5.95E-01  6.47E-01  6.29E-01  5.66E-01  7.53E-01  5.09E-01  5.65E-01  6.21E-01
 res:  5.80E-01  6.07E-01  5.85E-01  5.40E-01  5.90E-01  5.50E-01  5.30E-01  5.62E-01
 res:  5.98E-01  6.13E-01  5.37E-01  5.80E-01  5.63E-01  5.62E-01  5.49E-01  4.98E-01
 res:  5.96E-01  5.07E-01  5.56E-01  5.25E-01  5.60E-01  4.93E-01  5.45E-01  5.13E-01
 res:  6.19E-01  5.20E-01  4.77E-01  5.72E-01  5.67E-01  5.33E-01  5.98E-01  4.76E-01
 res:  5.06E-01  4.95E-01  5.01E-01
 ene: -2.55E+00 -2.41E+00 -2.36E+00 -2.34E+00 -2.32E+00 -2.27E+00 -2.23E+00 -2.18E+00
 ene: -1.71E+00 -1.64E+00 -1.59E+00 -1.56E+00 -1.53E+00 -1.40E+00 -1.38E+00 -1.38E+00
 ene: -1.36E+00 -1.35E+00 -1.33E+00 -1.33E+00 -1.31E+00 -1.30E+00 -1.29E+00 -1.28E+00
 ene: -1.27E+00 -1.26E+00 -1.25E+00 -1.24E+00 -1.21E+00 -1.20E+00 -1.17E+00 -1.14E+00
 ene: -1.13E+00 -1.10E+00 -1.07E+00 -1.03E+00 -9.00E-01 -8.83E-01 -8.61E-01 -8.59E-01
 ene: -8.41E-01 -8.29E-01 -8.17E-01 -7.99E-01 -7.93E-01 -7.71E-01 -7.36E-01 -7.22E-01
 ene: -5.70E-01 -5.39E-01 -5.06E-01 -4.78E-01 -4.54E-01 -4.25E-01 -3.92E-01 -3.73E-01
 ene: -8.69E-02 -5.93E-02 -4.86E-02 -4.03E-02 -2.29E-02 -5.55E-03  5.18E-03  1.98E-02
 ene:  3.45E-02  4.24E-02  5.40E-02  6.04E-02  6.84E-02  8.54E-02  9.14E-02  1.05E-01
 ene:  1.09E-01  1.26E-01  1.40E-01  1.54E-01  1.61E-01  1.67E-01  1.79E-01  1.89E-01
 ene:  1.92E-01  2.07E-01  2.14E-01  2.29E-01  2.40E-01  2.44E-01  2.51E-01  2.57E-01
 ene:  2.65E-01  2.71E-01  2.82E-01  2.85E-01  2.90E-01  3.06E-01  3.09E-01  3.13E-01
 ene:  3.24E-01  3.30E-01  3.43E-01  3.47E-01  3.52E-01  3.55E-01  3.65E-01  3.73E-01
 ene:  3.89E-01  3.99E-01  4.02E-01  4.15E-01  4.20E-01  4.36E-01  4.48E-01  4.58E-01
 ene:  4.76E-01  4.85E-01  4.94E-01  5.08E-01  5.26E-01  5.44E-01  5.62E-01  5.85E-01
 ene:  6.19E-01  6.47E-01  7.26E-01
 res:  1.58E-01  1.17E-01  1.41E-01  1.34E-01  1.39E-01  1.50E-01  1.39E-01  1.65E-01
 res:  3.32E-02  5.12E-02  6.06E-02  5.27E-02  6.37E-02  2.59E-02  2.52E-02  2.66E-02
 res:  2.65E-02  2.61E-02  2.10E-02  2.41E-02  2.45E-02  2.32E-02  2.84E-02  3.34E-02
 res:  3.77E-02  2.96E-02  3.46E-02  3.20E-02  4.33E-02  4.71E-02  3.81E-02  5.95E-02
 res:  5.25E-02  5.55E-02  6.29E-02  7.36E-02  2.66E-02  2.69E-02  2.57E-02  2.88E-02
 res:  3.96E-02  4.42E-02  4.98E-02  3.76E-02  4.80E-02  4.75E-02  5.81E-02  5.34E-02
 res:  2.76E-02  4.46E-02  3.98E-02  2.63E-02  3.72E-02  3.93E-02  3.84E-02  4.54E-02
 res:  2.48E-02  2.43E-02  3.24E-02  2.49E-02  2.83E-02  2.94E-02  3.29E-02  3.20E-02
 res:  3.02E-02  3.14E-02  3.56E-02  3.56E-02  3.55E-02  3.50E-02  4.06E-02  4.48E-02
 res:  4.11E-02  4.68E-02  4.94E-02  4.87E-02  5.53E-02  5.03E-02  5.65E-02  6.02E-02
 res:  5.68E-02  4.84E-02  4.05E-02  4.67E-02  4.41E-02  7.03E-02  3.51E-02  6.05E-02
 res:  5.18E-02  4.71E-02  5.75E-02  4.78E-02  4.99E-02  3.87E-02  5.37E-02  5.41E-02
 res:  5.02E-02  5.09E-02  6.08E-02  6.00E-02  5.59E-02  5.99E-02  5.53E-02  6.34E-02
 res:  6.75E-02  6.33E-02  8.02E-02  5.20E-02  6.33E-02  7.67E-02  6.93E-02  7.52E-02
 res:  7.77E-02  8.26E-02  7.28E-02  7.50E-02  8.24E-02  8.60E-02  9.05E-02  9.36E-02
 res:  8.57E-02  1.03E-01  1.01E-01
 ene: -3.11E+00 -2.90E+00 -2.89E+00 -2.87E+00 -2.87E+00 -2.86E+00 -2.85E+00 -2.85E+00
 ene: -2.03E+00 -2.03E+00 -2.02E+00 -2.02E+00 -1.99E+00 -1.75E+00 -1.75E+00 -1.71E+00
 ene: -1.71E+00 -1.64E+00 -1.64E+00 -1.63E+00 -1.63E+00 -1.63E+00 -1.63E+00 -1.62E+00
 ene: -1.62E+00 -1.61E+00 -1.61E+00 -1.61E+00 -1.60E+00 -1.60E+00 -1.60E+00 -1.60E+00
 ene: -1.59E+00 -1.58E+00 -1.58E+00 -1.46E+00 -1.18E+00 -1.18E+00 -1.17E+00 -1.17E+00
 ene: -1.17E+00 -1.16E+00 -1.16E+00 -1.16E+00 -1.16E+00 -1.15E+00 -1.15E+00 -1.15E+00
 ene: -8.12E-01 -8.07E-01 -7.32E-01 -7.16E-01 -7.05E-01 -6.51E-01 -6.50E-01 -6.31E-01
 ene: -2.90E-01 -2.69E-01 -2.56E-01 -2.50E-01 -2.38E-01 -2.28E-01 -2.07E-01 -2.01E-01
 ene: -1.88E-01 -1.80E-01 -1.74E-01 -1.69E-01 -1.61E-01 -1.53E-01 -1.44E-01 -1.40E-01
 ene: -1.36E-01 -1.34E-01 -1.20E-01 -1.19E-01 -1.03E-01 -8.20E-02 -6.68E-02 -3.53E-02
 ene: -2.43E-02 -1.08E-02 -3.26E-03  1.24E-03  1.62E-02  2.63E-02  3.00E-02  4.06E-02
 ene:  4.52E-02  5.74E-02  6.94E-02  7.58E-02  8.14E-02  8.35E-02  9.15E-02  9.38E-02
 ene:  1.00E-01  1.11E-01  1.15E-01  1.24E-01  1.29E-01  1.31E-01  1.41E-01  1.45E-01
 ene:  1.53E-01  1.57E-01  1.60E-01  1.63E-01  1.73E-01  1.77E-01  1.85E-01  1.92E-01
 ene:  1.97E-01  2.00E-01  2.06E-01  2.13E-01  2.25E-01  2.34E-01  2.38E-01  2.46E-01
 ene:  2.52E-01  2.65E-01  2.90E-01
 vtowfk : number of one-way 3D ffts skipped in vtowfk until now =6
     eigenvalues (hartree) for  123  bands
              after    3 non-SCF iterations with    4 CG line minimizations
 -3.1090E+00 -2.8962E+00 -2.8926E+00 -2.8666E+00 -2.8651E+00 -2.8607E+00
 -2.8549E+00 -2.8452E+00 -2.0304E+00 -2.0296E+00 -2.0249E+00 -2.0219E+00
 -1.9908E+00 -1.7529E+00 -1.7515E+00 -1.7129E+00 -1.7120E+00 -1.6415E+00
 -1.6409E+00 -1.6341E+00 -1.6336E+00 -1.6303E+00 -1.6275E+00 -1.6228E+00
 -1.6174E+00 -1.6140E+00 -1.6133E+00 -1.6052E+00 -1.6044E+00 -1.6030E+00
 -1.5974E+00 -1.5958E+00 -1.5928E+00 -1.5815E+00 -1.5770E+00 -1.4610E+00
 -1.1784E+00 -1.1766E+00 -1.1686E+00 -1.1669E+00 -1.1665E+00 -1.1634E+00
 -1.1616E+00 -1.1602E+00 -1.1564E+00 -1.1539E+00 -1.1490E+00 -1.1461E+00
 -8.1206E-01 -8.0703E-01 -7.3248E-01 -7.1617E-01 -7.0475E-01 -6.5070E-01
 -6.4998E-01 -6.3081E-01 -2.8980E-01 -2.6907E-01 -2.5613E-01 -2.4956E-01
 -2.3801E-01 -2.2836E-01 -2.0692E-01 -2.0066E-01 -1.8778E-01 -1.7997E-01
 -1.7418E-01 -1.6892E-01 -1.6098E-01 -1.5268E-01 -1.4439E-01 -1.4042E-01
 -1.3625E-01 -1.3354E-01 -1.2017E-01 -1.1851E-01 -1.0326E-01 -8.2030E-02
 -6.6758E-02 -3.5259E-02 -2.4275E-02 -1.0755E-02 -3.2608E-03  1.2383E-03
  1.6227E-02  2.6269E-02  3.0047E-02  4.0584E-02  4.5166E-02  5.7444E-02
  6.9390E-02  7.5839E-02  8.1351E-02  8.3525E-02  9.1527E-02  9.3759E-02
  1.0013E-01  1.1146E-01  1.1452E-01  1.2363E-01  1.2890E-01  1.3134E-01
  1.4091E-01  1.4546E-01  1.5274E-01  1.5701E-01  1.6013E-01  1.6323E-01
  1.7312E-01  1.7694E-01  1.8503E-01  1.9172E-01  1.9700E-01  1.9992E-01
  2.0643E-01  2.1315E-01  2.2507E-01  2.3407E-01  2.3787E-01  2.4594E-01
  2.5179E-01  2.6502E-01  2.9004E-01
 Total charge density [el/Bohr^3]
      Maximum=    1.6666E+00  at reduced coord.    0.2656    0.0156    0.6688
      Minimum=    1.6310E-03  at reduced coord.    0.8281    0.3906    0.4281
   Integrated=    2.4000E+02
 ETOT  1  -1187.0974454972    -1.187E+03 1.696E-01 1.186E+08
 scprqt: <Vxc>= -3.4524719E-01 hartree

Simple mixing update:
  residual square of the potential :   1333936.5240401665
 scfcv: previous iteration took 05:58

 ITER STEP NUMBER     2
 vtorho : nnsclo_now=2, note that nnsclo,dbl_nnsclo,istep=0 0 2
 non-scf iterations; kpt #     1  , k= (  0.12500  0.50000  0.50000  ), band residuals:
 res:  3.11E-02  2.65E-02  2.83E-02  3.49E-02  3.59E-02  2.79E-02  3.88E-02  3.47E-02
 res:  5.27E-03  3.15E-02  3.46E-02  8.42E-03  3.76E-02  1.50E-02  1.48E-02  5.96E-03
 res:  7.21E-03  2.37E-02  2.76E-02  2.17E-02  1.70E-02  4.10E-02  2.79E-02  1.98E-02
 res:  1.25E-02  1.37E-02  1.42E-02  1.97E-02  2.29E-02  2.52E-02  1.39E-02  1.60E-02
 res:  1.67E-02  1.74E-02  2.31E-02  2.20E-02  3.81E+00  2.29E+00  5.35E-01  1.37E+00
 res:  8.61E-01  1.42E+00  2.03E+00  9.97E-01  1.32E+00  2.17E+00  2.32E+00  1.93E+00
 res:  5.66E-01  6.43E-01  6.64E-01  5.34E-01  4.73E-01  6.58E-01  4.37E-01  5.49E-01
 res:  1.34E+00  1.35E+00  1.63E+00  1.32E+00  1.52E+00  1.13E+00  1.60E+00  9.01E-01
 res:  1.47E+00  1.17E+00  1.61E+00  9.92E-01  9.45E-01  1.79E+00  1.35E+00  1.39E+00
 res:  2.19E+00  1.71E+00  1.50E+00  1.14E+00  1.06E+00  1.04E+00  1.12E+00  1.71E+00
 res:  3.42E-01  5.60E-01  1.92E+00  3.43E-01  2.01E+00  2.94E-01  1.26E+00  5.03E-01
 res:  8.29E-01  3.41E-01  2.76E-01  3.81E-01  2.59E-01  3.21E-01  2.96E-01  3.03E-01
 res:  3.56E-01  5.31E-01  9.15E-01  1.05E+00  9.26E-01  9.53E-01  8.44E-01  1.29E+00
 res:  8.63E-01  9.13E-01  8.69E-01  9.91E-01  8.06E-01  1.14E+00  9.66E-01  1.04E+00
 res:  1.28E+00  1.08E+00  8.45E-01  6.99E-01  7.54E-01  6.51E-01  6.30E-01  5.79E-01
 res:  5.23E-01  7.84E-01  5.56E-01
 ene: -5.51E+00 -5.22E+00 -5.09E+00 -5.08E+00 -5.06E+00 -5.05E+00 -4.96E+00 -4.84E+00
 ene: -4.31E+00 -4.06E+00 -4.05E+00 -3.92E+00 -3.92E+00 -3.86E+00 -3.85E+00 -3.80E+00
 ene: -3.76E+00 -3.75E+00 -3.75E+00 -3.74E+00 -3.74E+00 -3.74E+00 -3.73E+00 -3.73E+00
 ene: -3.72E+00 -3.71E+00 -3.63E+00 -3.63E+00 -3.62E+00 -3.52E+00 -3.51E+00 -3.50E+00
 ene: -2.29E+00 -2.22E+00 -2.05E+00 -2.01E+00 -1.97E+00 -1.91E+00 -1.90E+00 -1.89E+00
 ene: -1.87E+00 -1.83E+00 -1.79E+00 -1.77E+00 -1.76E+00 -1.74E+00 -1.73E+00 -1.72E+00
 ene: -1.69E+00 -1.67E+00 -1.64E+00 -1.62E+00 -1.60E+00 -1.56E+00 -1.55E+00 -1.52E+00
 ene: -1.51E+00 -1.47E+00 -1.45E+00 -1.40E+00 -1.39E+00 -1.35E+00 -1.31E+00 -1.28E+00
 ene: -1.27E+00 -1.23E+00 -1.20E+00 -1.18E+00 -1.15E+00 -1.12E+00 -1.07E+00 -1.03E+00
 ene: -9.88E-01 -9.65E-01 -9.59E-01 -9.52E-01 -9.23E-01 -8.57E-01 -8.39E-01 -8.17E-01
 ene: -8.07E-01 -7.69E-01 -7.56E-01 -7.17E-01 -6.86E-01 -6.59E-01 -6.33E-01 -6.21E-01
 ene: -5.86E-01 -5.67E-01 -5.35E-01 -4.91E-01 -4.73E-01 -4.44E-01 -4.19E-01 -3.90E-01
 ene: -3.50E-01 -3.09E-01 -2.89E-01 -2.61E-01 -2.19E-01 -1.88E-01 -1.30E-01 -1.03E-01
 ene: -5.19E-02 -2.39E-02  1.39E-03  3.97E-02  5.31E-02  7.26E-02  1.54E-01  1.85E-01
 ene:  2.10E-01  2.47E-01  2.98E-01  3.94E-01  4.24E-01  5.03E-01  5.84E-01  6.46E-01
 ene:  8.13E-01  9.77E-01  1.07E+00
 res:  1.01E-03  4.49E-04  6.62E-04  6.56E-04  4.41E-04  4.52E-04  6.72E-04  5.23E-04
 res:  2.77E-04  1.42E-04  1.51E-04  1.59E-04  1.38E-04  4.54E-05  5.18E-05  2.64E-04
 res:  1.26E-04  1.37E-04  2.54E-04  1.89E-04  1.48E-04  1.40E-04  1.77E-04  1.33E-04
 res:  1.61E-04  1.18E-04  1.93E-04  2.83E-04  2.95E-04  2.25E-04  1.87E-04  2.61E-04
 res:  5.48E-03  1.60E-02  1.42E-02  4.42E-02  3.20E-02  7.83E-03  1.62E-02  5.89E-03
 res:  9.16E-03  1.71E-02  2.68E-02  3.00E-02  2.70E-02  1.47E-02  2.14E-02  2.27E-02
 res:  2.51E-02  3.02E-02  3.07E-02  3.81E-02  3.70E-02  3.89E-02  4.40E-02  4.38E-02
 res:  4.98E-02  5.14E-02  6.80E-02  7.25E-02  7.09E-02  7.67E-02  9.38E-02  1.11E-01
 res:  1.39E-01  1.16E-01  1.43E-01  1.30E-01  1.35E-01  1.34E-01  1.98E-01  1.93E-01
 res:  2.10E-01  6.60E-02  1.74E-01  1.98E-01  2.99E-01  3.34E-01  2.55E-01  2.51E-01
 res:  2.38E-01  1.92E-01  8.09E-02  9.83E-02  1.26E-01  1.27E-01  1.14E-01  1.11E-01
 res:  9.95E-02  1.04E-01  1.06E-01  8.16E-02  9.11E-02  1.10E-01  8.66E-02  1.04E-01
 res:  1.06E-01  1.03E-01  1.13E-01  1.20E-01  1.13E-01  1.29E-01  1.08E-01  1.21E-01
 res:  1.35E-01  2.60E-01  2.36E-01  2.63E-01  1.43E-01  1.80E-01  2.03E-01  2.10E-01
 res:  2.41E-01  1.91E-01  2.06E-01  3.79E-01  2.87E-01  1.91E-01  1.39E-01  1.83E-01
 res:  4.74E-01  2.49E-01  2.34E-01
 ene: -5.51E+00 -5.22E+00 -5.10E+00 -5.08E+00 -5.06E+00 -5.05E+00 -4.96E+00 -4.84E+00
 ene: -4.31E+00 -4.06E+00 -4.05E+00 -3.92E+00 -3.92E+00 -3.86E+00 -3.85E+00 -3.80E+00
 ene: -3.76E+00 -3.76E+00 -3.75E+00 -3.74E+00 -3.74E+00 -3.74E+00 -3.73E+00 -3.73E+00
 ene: -3.72E+00 -3.71E+00 -3.63E+00 -3.63E+00 -3.62E+00 -3.52E+00 -3.51E+00 -3.50E+00
 ene: -2.34E+00 -2.34E+00 -2.31E+00 -2.09E+00 -2.09E+00 -1.98E+00 -1.98E+00 -1.95E+00
 ene: -1.94E+00 -1.93E+00 -1.93E+00 -1.91E+00 -1.90E+00 -1.85E+00 -1.83E+00 -1.81E+00
 ene: -1.80E+00 -1.80E+00 -1.79E+00 -1.79E+00 -1.78E+00 -1.78E+00 -1.77E+00 -1.77E+00
 ene: -1.76E+00 -1.75E+00 -1.75E+00 -1.74E+00 -1.72E+00 -1.69E+00 -1.65E+00 -1.64E+00
 ene: -1.64E+00 -1.63E+00 -1.61E+00 -1.56E+00 -1.55E+00 -1.54E+00 -1.53E+00 -1.52E+00
 ene: -1.49E+00 -1.36E+00 -1.35E+00 -1.27E+00 -1.23E+00 -1.13E+00 -1.09E+00 -1.04E+00
 ene: -9.83E-01 -9.81E-01 -9.68E-01 -9.67E-01 -9.52E-01 -9.48E-01 -8.99E-01 -8.88E-01
 ene: -8.77E-01 -8.57E-01 -8.28E-01 -7.99E-01 -7.81E-01 -7.67E-01 -7.48E-01 -7.32E-01
 ene: -7.23E-01 -7.12E-01 -6.81E-01 -6.33E-01 -6.02E-01 -5.91E-01 -5.72E-01 -5.49E-01
 ene: -5.31E-01 -5.14E-01 -5.03E-01 -4.73E-01 -4.54E-01 -4.25E-01 -4.02E-01 -3.85E-01
 ene: -3.66E-01 -3.51E-01 -3.35E-01 -3.21E-01 -3.01E-01 -2.58E-01 -2.42E-01 -1.84E-01
 ene: -1.68E-01 -1.22E-01 -6.72E-02
 vtowfk : number of one-way 3D ffts skipped in vtowfk until now =9
     eigenvalues (hartree) for  123  bands
              after    3 non-SCF iterations with    4 CG line minimizations
 -5.5106E+00 -5.2243E+00 -5.0951E+00 -5.0789E+00 -5.0635E+00 -5.0489E+00
 -4.9604E+00 -4.8365E+00 -4.3147E+00 -4.0562E+00 -4.0497E+00 -3.9201E+00
 -3.9162E+00 -3.8582E+00 -3.8499E+00 -3.8017E+00 -3.7625E+00 -3.7555E+00
 -3.7490E+00 -3.7434E+00 -3.7408E+00 -3.7373E+00 -3.7322E+00 -3.7315E+00
 -3.7188E+00 -3.7149E+00 -3.6348E+00 -3.6269E+00 -3.6226E+00 -3.5171E+00
 -3.5127E+00 -3.5036E+00 -2.3424E+00 -2.3399E+00 -2.3100E+00 -2.0926E+00
 -2.0920E+00 -1.9835E+00 -1.9771E+00 -1.9526E+00 -1.9436E+00 -1.9289E+00
 -1.9262E+00 -1.9130E+00 -1.9020E+00 -1.8480E+00 -1.8343E+00 -1.8117E+00
 -1.8038E+00 -1.7986E+00 -1.7926E+00 -1.7855E+00 -1.7822E+00 -1.7793E+00
 -1.7715E+00 -1.7657E+00 -1.7619E+00 -1.7512E+00 -1.7457E+00 -1.7380E+00
 -1.7239E+00 -1.6893E+00 -1.6484E+00 -1.6414E+00 -1.6366E+00 -1.6253E+00
 -1.6147E+00 -1.5583E+00 -1.5457E+00 -1.5357E+00 -1.5283E+00 -1.5216E+00
 -1.4921E+00 -1.3551E+00 -1.3507E+00 -1.2716E+00 -1.2283E+00 -1.1311E+00
 -1.0864E+00 -1.0442E+00 -9.8301E-01 -9.8052E-01 -9.6828E-01 -9.6656E-01
 -9.5189E-01 -9.4820E-01 -8.9892E-01 -8.8823E-01 -8.7708E-01 -8.5733E-01
 -8.2779E-01 -7.9924E-01 -7.8147E-01 -7.6661E-01 -7.4754E-01 -7.3234E-01
 -7.2276E-01 -7.1179E-01 -6.8142E-01 -6.3280E-01 -6.0242E-01 -5.9117E-01
 -5.7223E-01 -5.4924E-01 -5.3086E-01 -5.1412E-01 -5.0338E-01 -4.7264E-01
 -4.5388E-01 -4.2535E-01 -4.0243E-01 -3.8526E-01 -3.6550E-01 -3.5099E-01
 -3.3504E-01 -3.2075E-01 -3.0092E-01 -2.5844E-01 -2.4195E-01 -1.8370E-01
 -1.6820E-01 -1.2215E-01 -6.7183E-02
 non-scf iterations; kpt #     2  , k= (  0.37500  0.50000  0.50000  ), band residuals:
 res:  3.09E-02  2.97E-02  2.79E-02  3.29E-02  3.51E-02  2.83E-02  3.70E-02  3.74E-02
 res:  5.80E-03  6.26E-03  3.57E-02  1.84E-02  6.34E-02  1.61E-02  1.60E-02  6.26E-03
 res:  5.65E-03  2.47E-02  2.47E-02  1.57E-02  1.74E-02  3.32E-02  1.43E-02  1.86E-02
 res:  1.23E-02  1.71E-02  1.34E-02  2.13E-02  2.52E-02  2.52E-02  1.42E-02  2.00E-02
 res:  1.74E-02  1.80E-02  2.16E-02  1.97E-02  1.85E+00  2.08E+00  7.84E-01  1.75E+00
 res:  1.65E+00  2.96E+00  9.14E-01  1.21E+00  1.56E+00  1.89E+00  2.17E+00  2.19E+00
 res:  9.02E-01  5.83E-01  7.14E-01  7.02E-01  5.53E-01  7.30E-01  8.73E-01  6.76E-01
 res:  1.40E+00  1.51E+00  1.40E+00  1.47E+00  9.50E-01  1.40E+00  1.53E+00  1.47E+00
 res:  1.15E+00  1.54E+00  1.36E+00  7.67E-01  1.51E+00  1.75E+00  1.10E+00  1.37E+00
 res:  2.17E+00  1.81E+00  1.08E+00  1.33E+00  1.20E+00  1.15E+00  1.33E+00  1.70E+00
 res:  2.41E-01  1.50E+00  3.66E-01  6.79E-01  1.23E+00  3.01E-01  1.06E+00  1.00E+00
 res:  9.35E-01  2.50E-01  2.14E-01  2.57E-01  2.41E-01  2.67E-01  5.36E-01  4.21E-01
 res:  4.77E-01  6.02E-01  7.86E-01  9.62E-01  8.22E-01  6.43E-01  9.10E-01  8.43E-01
 res:  9.19E-01  7.41E-01  9.61E-01  1.28E+00  8.83E-01  9.91E-01  1.17E+00  6.96E-01
 res:  7.88E-01  7.21E-01  9.84E-01  7.08E-01  7.49E-01  6.81E-01  6.79E-01  4.98E-01
 res:  6.28E-01  5.10E-01  4.79E-01
 ene: -5.51E+00 -5.22E+00 -5.09E+00 -5.08E+00 -5.06E+00 -5.05E+00 -4.96E+00 -4.84E+00
 ene: -4.31E+00 -4.06E+00 -4.05E+00 -3.92E+00 -3.92E+00 -3.86E+00 -3.85E+00 -3.80E+00
 ene: -3.76E+00 -3.75E+00 -3.75E+00 -3.74E+00 -3.74E+00 -3.74E+00 -3.73E+00 -3.73E+00
 ene: -3.72E+00 -3.71E+00 -3.63E+00 -3.63E+00 -3.62E+00 -3.52E+00 -3.51E+00 -3.50E+00
 ene: -2.29E+00 -2.22E+00 -2.06E+00 -1.97E+00 -1.92E+00 -1.91E+00 -1.90E+00 -1.88E+00
 ene: -1.84E+00 -1.81E+00 -1.78E+00 -1.76E+00 -1.75E+00 -1.74E+00 -1.72E+00 -1.70E+00
 ene: -1.69E+00 -1.67E+00 -1.63E+00 -1.63E+00 -1.60E+00 -1.57E+00 -1.56E+00 -1.53E+00
 ene: -1.50E+00 -1.48E+00 -1.45E+00 -1.43E+00 -1.40E+00 -1.37E+00 -1.36E+00 -1.33E+00
 ene: -1.29E+00 -1.25E+00 -1.22E+00 -1.19E+00 -1.15E+00 -1.14E+00 -1.09E+00 -1.06E+00
 ene: -1.02E+00 -9.90E-01 -9.70E-01 -9.60E-01 -9.57E-01 -9.09E-01 -8.67E-01 -8.51E-01
 ene: -8.29E-01 -8.12E-01 -7.67E-01 -7.51E-01 -7.18E-01 -6.90E-01 -6.30E-01 -6.14E-01
 ene: -5.74E-01 -5.38E-01 -5.07E-01 -4.76E-01 -4.53E-01 -4.20E-01 -3.95E-01 -3.74E-01
 ene: -3.22E-01 -2.69E-01 -2.43E-01 -2.31E-01 -2.04E-01 -1.26E-01 -1.04E-01 -4.29E-02
 ene: -3.93E-03  3.16E-02  4.95E-02  9.52E-02  1.49E-01  1.57E-01  1.91E-01  2.52E-01
 ene:  2.89E-01  3.57E-01  4.19E-01  4.53E-01  5.27E-01  6.83E-01  7.97E-01  8.76E-01
 ene:  8.96E-01  9.53E-01  1.05E+00
 res:  1.09E-03  4.03E-04  6.85E-04  7.01E-04  5.32E-04  4.73E-04  7.97E-04  5.60E-04
 res:  3.23E-04  1.73E-04  1.67E-04  1.16E-04  1.12E-04  5.88E-05  4.90E-05  1.64E-04
 res:  1.35E-04  1.48E-04  1.31E-04  1.29E-04  1.37E-04  7.49E-05  1.26E-04  1.53E-04
 res:  1.22E-04  1.77E-04  2.22E-04  2.41E-04  2.43E-04  1.99E-04  2.67E-04  3.19E-04
 res:  6.25E-03  1.44E-02  7.71E-03  1.74E-02  6.99E-02  3.21E-02  1.11E-02  1.49E-02
 res:  4.73E-02  2.58E-02  2.71E-02  1.87E-02  2.45E-02  1.92E-02  3.09E-02  2.91E-02
 res:  2.31E-02  4.19E-02  4.23E-02  4.83E-02  4.93E-02  4.68E-02  4.44E-02  5.33E-02
 res:  5.39E-02  5.46E-02  6.23E-02  6.61E-02  8.28E-02  7.64E-02  9.83E-02  9.80E-02
 res:  1.37E-01  1.08E-01  1.42E-01  1.51E-01  1.65E-01  1.35E-01  1.88E-01  2.22E-01
 res:  2.31E-01  2.20E-01  2.31E-01  6.43E-02  4.84E-02  2.53E-01  3.48E-01  1.73E-01
 res:  1.80E-01  1.93E-01  2.43E-01  1.49E-01  1.29E-01  1.56E-01  8.70E-02  1.48E-01
 res:  1.09E-01  1.62E-01  8.94E-02  1.08E-01  2.13E-01  1.27E-01  7.97E-02  1.42E-01
 res:  1.22E-01  7.56E-02  1.21E-01  1.14E-01  1.02E-01  1.54E-01  1.29E-01  2.05E-01
 res:  2.18E-01  1.99E-01  2.68E-01  2.65E-01  2.95E-01  1.94E-01  2.15E-01  2.53E-01
 res:  2.92E-01  2.81E-01  2.63E-01  2.12E-01  1.97E-01  3.88E-01  4.83E-01  5.22E-01
 res:  5.06E-01  4.52E-01  5.33E-01
 ene: -5.51E+00 -5.22E+00 -5.10E+00 -5.08E+00 -5.06E+00 -5.05E+00 -4.96E+00 -4.84E+00
 ene: -4.31E+00 -4.06E+00 -4.05E+00 -3.92E+00 -3.92E+00 -3.86E+00 -3.85E+00 -3.80E+00
 ene: -3.76E+00 -3.76E+00 -3.75E+00 -3.74E+00 -3.74E+00 -3.74E+00 -3.73E+00 -3.73E+00
 ene: -3.72E+00 -3.71E+00 -3.63E+00 -3.63E+00 -3.62E+00 -3.52E+00 -3.51E+00 -3.50E+00
 ene: -2.34E+00 -2.34E+00 -2.30E+00 -2.09E+00 -2.09E+00 -1.98E+00 -1.97E+00 -1.95E+00
 ene: -1.94E+00 -1.93E+00 -1.93E+00 -1.91E+00 -1.90E+00 -1.84E+00 -1.83E+00 -1.81E+00
 ene: -1.81E+00 -1.80E+00 -1.79E+00 -1.79E+00 -1.78E+00 -1.78E+00 -1.77E+00 -1.76E+00
 ene: -1.75E+00 -1.74E+00 -1.74E+00 -1.73E+00 -1.72E+00 -1.68E+00 -1.64E+00 -1.64E+00
 ene: -1.63E+00 -1.62E+00 -1.61E+00 -1.56E+00 -1.55E+00 -1.53E+00 -1.53E+00 -1.50E+00
 ene: -1.48E+00 -1.34E+00 -1.33E+00 -1.28E+00 -1.26E+00 -1.14E+00 -1.12E+00 -1.09E+00
 ene: -1.00E+00 -9.87E-01 -9.80E-01 -9.65E-01 -9.63E-01 -9.04E-01 -8.71E-01 -8.63E-01
 ene: -8.53E-01 -8.44E-01 -8.01E-01 -7.73E-01 -7.62E-01 -7.36E-01 -7.25E-01 -7.08E-01
 ene: -7.00E-01 -6.72E-01 -6.41E-01 -6.20E-01 -6.17E-01 -5.89E-01 -5.71E-01 -5.54E-01
 ene: -5.36E-01 -5.11E-01 -4.81E-01 -4.64E-01 -4.54E-01 -4.35E-01 -4.15E-01 -3.92E-01
 ene: -3.86E-01 -3.21E-01 -2.94E-01 -2.82E-01 -2.29E-01 -1.95E-01 -1.62E-01 -7.06E-02
 ene: -2.03E-02  2.75E-02  2.21E-01
 vtowfk : number of one-way 3D ffts skipped in vtowfk until now =12
     eigenvalues (hartree) for  123  bands
              after    3 non-SCF iterations with    4 CG line minimizations
 -5.5106E+00 -5.2243E+00 -5.0951E+00 -5.0789E+00 -5.0635E+00 -5.0489E+00
 -4.9604E+00 -4.8365E+00 -4.3147E+00 -4.0562E+00 -4.0497E+00 -3.9201E+00
 -3.9162E+00 -3.8582E+00 -3.8499E+00 -3.8017E+00 -3.7625E+00 -3.7555E+00
 -3.7490E+00 -3.7434E+00 -3.7408E+00 -3.7373E+00 -3.7322E+00 -3.7315E+00
 -3.7188E+00 -3.7149E+00 -3.6348E+00 -3.6269E+00 -3.6226E+00 -3.5171E+00
 -3.5127E+00 -3.5036E+00 -2.3431E+00 -2.3366E+00 -2.2993E+00 -2.0926E+00
 -2.0904E+00 -1.9794E+00 -1.9705E+00 -1.9471E+00 -1.9439E+00 -1.9271E+00
 -1.9257E+00 -1.9131E+00 -1.9012E+00 -1.8385E+00 -1.8298E+00 -1.8108E+00
 -1.8074E+00 -1.8005E+00 -1.7949E+00 -1.7865E+00 -1.7832E+00 -1.7751E+00
 -1.7702E+00 -1.7620E+00 -1.7519E+00 -1.7433E+00 -1.7402E+00 -1.7325E+00
 -1.7200E+00 -1.6803E+00 -1.6429E+00 -1.6372E+00 -1.6285E+00 -1.6223E+00
 -1.6109E+00 -1.5616E+00 -1.5462E+00 -1.5349E+00 -1.5265E+00 -1.5048E+00
 -1.4764E+00 -1.3376E+00 -1.3317E+00 -1.2778E+00 -1.2601E+00 -1.1371E+00
 -1.1227E+00 -1.0890E+00 -1.0010E+00 -9.8662E-01 -9.8034E-01 -9.6516E-01
 -9.6318E-01 -9.0407E-01 -8.7053E-01 -8.6307E-01 -8.5306E-01 -8.4417E-01
 -8.0079E-01 -7.7260E-01 -7.6153E-01 -7.3645E-01 -7.2457E-01 -7.0761E-01
 -7.0037E-01 -6.7206E-01 -6.4101E-01 -6.2020E-01 -6.1681E-01 -5.8891E-01
 -5.7114E-01 -5.5385E-01 -5.3593E-01 -5.1077E-01 -4.8116E-01 -4.6400E-01
 -4.5387E-01 -4.3488E-01 -4.1541E-01 -3.9176E-01 -3.8619E-01 -3.2147E-01
 -2.9404E-01 -2.8204E-01 -2.2893E-01 -1.9513E-01 -1.6175E-01 -7.0592E-02
 -2.0275E-02  2.7501E-02  2.2150E-01
 Total charge density [el/Bohr^3]
      Maximum=    2.7982E+00  at reduced coord.    0.0625    0.0000    0.6344
      Minimum=    9.1196E-05  at reduced coord.    0.2656    0.9063    0.2781
   Integrated=    2.4000E+02
 ETOT  2   2422.6617025338     3.610E+03 5.326E-01 1.899E+09
 scprqt: <Vxc>= -2.7233969E-01 hartree

 Pulay update with  1 previous iterations:
 mixing of old trial potential : alpha(m:m-4)=  0.201      0.799
 scfcv: previous iteration took 07:04

 ITER STEP NUMBER     3
 vtorho : nnsclo_now=1, note that nnsclo,dbl_nnsclo,istep=0 0 3
 non-scf iterations; kpt #     1  , k= (  0.12500  0.50000  0.50000  ), band residuals:
 res:  6.88E-03  6.17E-03  9.49E-03  8.93E-03  7.42E-03  7.15E-03  1.22E-02  1.33E-02
 res:  6.54E-03  6.74E-03  6.89E-03  4.90E-03  4.74E-03  7.79E-03  7.31E-03  1.05E-02
 res:  7.43E-03  1.29E-02  6.18E-03  6.67E-03  5.93E-03  6.16E-03  1.16E-02  1.12E-02
 res:  5.82E-03  9.90E-03  9.23E-03  9.43E-03  1.61E-02  1.05E-02  1.01E-02  2.01E-02
 res:  4.39E-03  4.98E-03  9.16E-03  2.17E-02  7.98E-03  3.09E-03  3.07E-03  2.32E-02
 res:  2.44E-02  1.08E-02  1.11E-02  8.84E-03  1.79E-02  3.90E-02  4.07E-01  1.60E-02
 res:  1.75E-02  6.38E-02  2.96E-02  2.82E-02  2.80E-02  7.58E-02  2.91E-02  3.48E-02
 res:  2.04E-02  5.04E-02  1.53E-02  1.70E-02  2.05E-02  1.46E-01  1.07E-02  7.28E-03
 res:  1.06E-02  1.43E-02  8.70E-03  1.86E-02  2.07E-02  1.39E-02  2.25E-02  1.70E-02
 res:  5.26E-02  5.37E-01  7.56E-01  4.12E-01  2.66E-01  9.17E-01  6.67E-01  2.82E-01
 res:  2.76E-01  4.27E-01  2.51E-01  8.50E-02  2.84E-01  4.08E-01  2.22E-01  2.65E-01
 res:  3.31E-01  2.62E-01  3.22E-01  3.33E-01  3.32E-01  1.31E+00  1.11E+00  6.12E-01
 res:  2.53E-01  3.19E-01  3.26E-01  3.09E-01  3.01E-01  2.17E-01  2.20E-01  3.05E-01
 res:  3.64E-01  3.06E-01  3.04E-01  2.77E-01  2.70E-01  3.49E-01  3.47E-01  2.79E-01
 res:  2.93E-01  3.41E-01  2.68E-01  3.31E-01  3.24E-01  2.24E-01  4.30E-01  5.08E-01
 res:  3.60E-01  5.44E-01  5.78E-01
 ene: -3.86E+00 -3.74E+00 -3.74E+00 -3.69E+00 -3.66E+00 -3.63E+00 -3.60E+00 -3.59E+00
 ene: -2.71E+00 -2.48E+00 -2.45E+00 -2.45E+00 -2.45E+00 -2.45E+00 -2.45E+00 -2.44E+00
 ene: -2.44E+00 -2.44E+00 -2.42E+00 -2.39E+00 -2.39E+00 -2.37E+00 -2.36E+00 -2.36E+00
 ene: -2.32E+00 -2.32E+00 -2.31E+00 -2.31E+00 -2.31E+00 -2.30E+00 -2.29E+00 -2.19E+00
 ene: -2.18E+00 -2.06E+00 -2.03E+00 -1.91E+00 -1.18E+00 -1.17E+00 -1.14E+00 -1.08E+00
 ene: -1.05E+00 -1.04E+00 -1.00E+00 -9.70E-01 -9.61E-01 -8.99E-01 -8.47E-01 -8.28E-01
 ene: -8.05E-01 -8.00E-01 -7.66E-01 -6.78E-01 -6.63E-01 -6.26E-01 -6.18E-01 -5.94E-01
 ene: -5.81E-01 -5.77E-01 -5.69E-01 -5.64E-01 -5.59E-01 -5.54E-01 -5.45E-01 -5.43E-01
 ene: -5.42E-01 -5.40E-01 -5.39E-01 -5.04E-01 -4.84E-01 -4.73E-01 -4.64E-01 -4.59E-01
 ene: -4.48E-01 -4.42E-01 -4.35E-01 -4.22E-01 -4.17E-01 -4.14E-01 -4.08E-01 -3.98E-01
 ene: -3.93E-01 -3.81E-01 -3.75E-01 -3.59E-01 -3.56E-01 -3.41E-01 -3.34E-01 -3.26E-01
 ene: -2.98E-01 -2.82E-01 -2.37E-01 -2.28E-01 -1.74E-01 -1.51E-01 -1.37E-01 -6.53E-02
 ene: -4.37E-02 -1.77E-02  1.09E-02  6.18E-02  7.67E-02  9.07E-02  1.20E-01  1.31E-01
 ene:  1.44E-01  1.60E-01  1.96E-01  2.01E-01  2.14E-01  2.27E-01  2.47E-01  2.60E-01
 ene:  2.79E-01  3.00E-01  3.22E-01  3.45E-01  3.52E-01  3.81E-01  3.95E-01  4.16E-01
 ene:  4.41E-01  5.01E-01  5.41E-01
 vtowfk : number of one-way 3D ffts skipped in vtowfk until now =15
     eigenvalues (hartree) for  123  bands
              after    2 non-SCF iterations with    4 CG line minimizations
 -3.8580E+00 -3.7415E+00 -3.7374E+00 -3.6928E+00 -3.6602E+00 -3.6264E+00
 -3.5965E+00 -3.5867E+00 -2.7080E+00 -2.4844E+00 -2.4539E+00 -2.4508E+00
 -2.4505E+00 -2.4476E+00 -2.4452E+00 -2.4443E+00 -2.4379E+00 -2.4358E+00
 -2.4229E+00 -2.3870E+00 -2.3862E+00 -2.3678E+00 -2.3625E+00 -2.3585E+00
 -2.3232E+00 -2.3188E+00 -2.3102E+00 -2.3083E+00 -2.3073E+00 -2.3002E+00
 -2.2945E+00 -2.1859E+00 -2.1765E+00 -2.0574E+00 -2.0301E+00 -1.9064E+00
 -1.1836E+00 -1.1660E+00 -1.1400E+00 -1.0827E+00 -1.0544E+00 -1.0400E+00
 -1.0033E+00 -9.7037E-01 -9.6052E-01 -8.9867E-01 -8.4666E-01 -8.2774E-01
 -8.0484E-01 -7.9951E-01 -7.6645E-01 -6.7770E-01 -6.6349E-01 -6.2562E-01
 -6.1820E-01 -5.9381E-01 -5.8075E-01 -5.7717E-01 -5.6854E-01 -5.6404E-01
 -5.5945E-01 -5.5401E-01 -5.4495E-01 -5.4296E-01 -5.4195E-01 -5.3957E-01
 -5.3859E-01 -5.0423E-01 -4.8355E-01 -4.7282E-01 -4.6377E-01 -4.5902E-01
 -4.4758E-01 -4.4183E-01 -4.3505E-01 -4.2180E-01 -4.1667E-01 -4.1424E-01
 -4.0751E-01 -3.9789E-01 -3.9310E-01 -3.8140E-01 -3.7491E-01 -3.5930E-01
 -3.5597E-01 -3.4058E-01 -3.3415E-01 -3.2616E-01 -2.9776E-01 -2.8168E-01
 -2.3721E-01 -2.2823E-01 -1.7353E-01 -1.5056E-01 -1.3703E-01 -6.5279E-02
 -4.3723E-02 -1.7724E-02  1.0888E-02  6.1815E-02  7.6680E-02  9.0716E-02
  1.2001E-01  1.3116E-01  1.4398E-01  1.6035E-01  1.9551E-01  2.0139E-01
  2.1352E-01  2.2666E-01  2.4662E-01  2.5950E-01  2.7876E-01  3.0048E-01
  3.2163E-01  3.4528E-01  3.5155E-01  3.8135E-01  3.9499E-01  4.1587E-01
  4.4118E-01  5.0061E-01  5.4105E-01
 non-scf iterations; kpt #     2  , k= (  0.37500  0.50000  0.50000  ), band residuals:
 res:  6.90E-03  6.22E-03  9.36E-03  8.61E-03  7.49E-03  6.88E-03  1.20E-02  1.31E-02
 res:  6.20E-03  7.11E-03  6.86E-03  5.03E-03  5.23E-03  8.27E-03  7.72E-03  1.05E-02
 res:  7.57E-03  1.31E-02  6.26E-03  6.66E-03  6.06E-03  6.20E-03  1.14E-02  1.09E-02
 res:  5.88E-03  9.51E-03  9.13E-03  8.59E-03  1.56E-02  1.03E-02  9.44E-03  1.99E-02
 res:  4.25E-03  5.35E-03  1.12E-02  9.03E-03  1.00E-02  6.30E-03  1.14E-02  6.31E-02
 res:  1.08E+00  1.58E-02  1.21E-01  1.65E-02  1.18E-02  6.39E-01  1.24E+00  1.06E-02
 res:  1.36E-02  7.25E-02  1.70E-02  2.25E-02  2.04E-02  7.22E-02  3.11E-02  3.07E-02
 res:  2.03E-02  1.97E-02  8.64E-02  3.38E-02  2.68E-02  1.62E-01  1.15E-02  7.23E-03
 res:  1.18E-02  1.48E-02  1.46E-02  1.55E-02  1.00E-02  2.95E-02  1.55E-02  3.01E-02
 res:  1.06E-01  6.33E-01  7.26E-01  1.76E-01  5.13E-01  6.45E-01  4.94E-01  7.23E-01
 res:  5.54E-01  2.31E-01  2.72E-01  2.13E-02  1.31E-02  1.57E-01  1.74E-01  2.20E-01
 res:  2.09E-01  2.64E-01  2.60E-01  2.81E-01  1.13E-01  2.81E-01  2.19E-01  2.65E-01
 res:  2.51E-01  2.51E-01  2.41E-01  3.28E-01  2.99E-01  2.95E-01  3.47E-01  2.87E-01
 res:  3.30E-01  3.38E-01  3.42E-01  3.57E-01  2.62E-01  2.90E-01  4.51E-01  3.22E-01
 res:  3.42E-01  3.73E-01  4.13E-01  3.61E-01  5.50E-01  4.24E-01  4.14E-01  3.66E-01
 res:  2.53E-01  4.82E-01  2.99E-01
 ene: -3.86E+00 -3.74E+00 -3.74E+00 -3.69E+00 -3.66E+00 -3.63E+00 -3.60E+00 -3.59E+00
 ene: -2.71E+00 -2.48E+00 -2.45E+00 -2.45E+00 -2.45E+00 -2.45E+00 -2.44E+00 -2.44E+00
 ene: -2.44E+00 -2.44E+00 -2.42E+00 -2.39E+00 -2.39E+00 -2.37E+00 -2.36E+00 -2.36E+00
 ene: -2.32E+00 -2.32E+00 -2.31E+00 -2.31E+00 -2.31E+00 -2.30E+00 -2.29E+00 -2.19E+00
 ene: -2.18E+00 -2.08E+00 -2.06E+00 -1.91E+00 -1.17E+00 -1.15E+00 -1.12E+00 -1.08E+00
 ene: -1.05E+00 -1.04E+00 -1.01E+00 -1.00E+00 -9.72E-01 -8.94E-01 -8.78E-01 -8.41E-01
 ene: -8.05E-01 -8.00E-01 -7.52E-01 -6.42E-01 -6.29E-01 -6.08E-01 -5.94E-01 -5.79E-01
 ene: -5.76E-01 -5.68E-01 -5.47E-01 -5.45E-01 -5.44E-01 -5.41E-01 -5.40E-01 -5.36E-01
 ene: -5.28E-01 -5.21E-01 -5.12E-01 -5.07E-01 -4.88E-01 -4.71E-01 -4.69E-01 -4.48E-01
 ene: -4.38E-01 -4.30E-01 -4.23E-01 -4.14E-01 -3.98E-01 -3.89E-01 -3.84E-01 -3.80E-01
 ene: -3.76E-01 -3.58E-01 -3.47E-01 -3.35E-01 -3.23E-01 -3.04E-01 -2.89E-01 -2.81E-01
 ene: -2.59E-01 -2.50E-01 -2.18E-01 -1.88E-01 -1.67E-01 -1.46E-01 -1.11E-01 -6.75E-02
 ene: -4.62E-02 -2.62E-02  1.07E-02  3.41E-02  5.45E-02  7.34E-02  9.56E-02  1.03E-01
 ene:  1.23E-01  1.43E-01  1.57E-01  1.68E-01  1.81E-01  2.21E-01  2.36E-01  2.50E-01
 ene:  2.59E-01  2.95E-01  3.15E-01  3.30E-01  3.32E-01  3.76E-01  3.92E-01  4.12E-01
 ene:  4.32E-01  4.83E-01  5.67E-01
 vtowfk : number of one-way 3D ffts skipped in vtowfk until now =18
     eigenvalues (hartree) for  123  bands
              after    2 non-SCF iterations with    4 CG line minimizations
 -3.8581E+00 -3.7416E+00 -3.7374E+00 -3.6928E+00 -3.6602E+00 -3.6264E+00
 -3.5964E+00 -3.5866E+00 -2.7079E+00 -2.4844E+00 -2.4538E+00 -2.4507E+00
 -2.4505E+00 -2.4479E+00 -2.4450E+00 -2.4443E+00 -2.4381E+00 -2.4360E+00
 -2.4225E+00 -2.3873E+00 -2.3862E+00 -2.3678E+00 -2.3625E+00 -2.3584E+00
 -2.3230E+00 -2.3190E+00 -2.3100E+00 -2.3081E+00 -2.3072E+00 -2.3002E+00
 -2.2944E+00 -2.1869E+00 -2.1765E+00 -2.0794E+00 -2.0618E+00 -1.9120E+00
 -1.1726E+00 -1.1515E+00 -1.1168E+00 -1.0827E+00 -1.0469E+00 -1.0436E+00
 -1.0118E+00 -1.0033E+00 -9.7154E-01 -8.9412E-01 -8.7836E-01 -8.4130E-01
 -8.0475E-01 -7.9952E-01 -7.5238E-01 -6.4229E-01 -6.2903E-01 -6.0777E-01
 -5.9357E-01 -5.7913E-01 -5.7568E-01 -5.6769E-01 -5.4730E-01 -5.4464E-01
 -5.4407E-01 -5.4103E-01 -5.4023E-01 -5.3634E-01 -5.2802E-01 -5.2092E-01
 -5.1223E-01 -5.0678E-01 -4.8826E-01 -4.7064E-01 -4.6856E-01 -4.4758E-01
 -4.3844E-01 -4.3019E-01 -4.2301E-01 -4.1436E-01 -3.9807E-01 -3.8941E-01
 -3.8433E-01 -3.7979E-01 -3.7570E-01 -3.5808E-01 -3.4676E-01 -3.3514E-01
 -3.2304E-01 -3.0368E-01 -2.8934E-01 -2.8116E-01 -2.5943E-01 -2.5012E-01
 -2.1833E-01 -1.8760E-01 -1.6725E-01 -1.4631E-01 -1.1149E-01 -6.7522E-02
 -4.6245E-02 -2.6156E-02  1.0656E-02  3.4143E-02  5.4462E-02  7.3429E-02
  9.5601E-02  1.0259E-01  1.2323E-01  1.4291E-01  1.5650E-01  1.6800E-01
  1.8130E-01  2.2085E-01  2.3568E-01  2.5017E-01  2.5893E-01  2.9493E-01
  3.1529E-01  3.3033E-01  3.3207E-01  3.7595E-01  3.9169E-01  4.1222E-01
  4.3169E-01  4.8284E-01  5.6734E-01
 Total charge density [el/Bohr^3]
      Maximum=    2.3747E+00  at reduced coord.    0.9531    0.0469    0.7781
      Minimum=    2.9391E-04  at reduced coord.    0.5156    0.6563    0.9750
   Integrated=    2.4000E+02
 ETOT  3  -698.49409938437    -3.121E+03 1.306E+00 3.510E+08
 scprqt: <Vxc>= -3.1151657E-01 hartree

 Pulay update with  2 previous iterations:
 mixing of old trial potential : alpha(m:m-4)=  0.342      0.153E-01  0.643
 scfcv: previous iteration took 03:36

 ITER STEP NUMBER     4
 vtorho : nnsclo_now=1, note that nnsclo,dbl_nnsclo,istep=0 0 4
 non-scf iterations; kpt #     1  , k= (  0.12500  0.50000  0.50000  ), band residuals:
 res:  9.73E-04  1.21E-03  1.42E-03  9.20E-04  9.45E-04  4.61E-04  1.09E-03  1.82E-03
 res:  1.03E-03  1.16E-03  3.74E-03  3.47E-02  3.33E-02  5.84E-03  5.72E-03  5.43E-03
 res:  1.01E-03  9.72E-04  4.53E-04  1.02E-03  8.81E-04  1.04E-03  8.93E-04  7.36E-04
 res:  3.46E-03  2.73E-04  1.37E-03  1.80E-03  4.11E-03  6.31E-04  2.91E-04  1.72E-03
 res:  1.23E-03  2.51E-03  5.89E-03  1.28E-03  1.10E-02  1.21E-02  1.56E-02  1.47E-02
 res:  1.44E-02  1.64E-02  2.40E-02  2.70E-02  1.90E-02  1.76E-02  2.26E-02  2.22E-02
 res:  1.21E-03  2.33E-03  1.92E-03  1.30E-03  3.62E-03  2.07E-03  8.17E-04  5.12E-03
 res:  5.38E-03  6.31E-03  2.86E-02  2.56E-02  6.01E-02  2.11E-02  2.64E-03  5.64E-03
 res:  2.26E-03  5.69E-03  4.09E-03  3.23E-02  5.11E-02  5.57E-02  2.43E-02  4.20E-02
 res:  4.68E-02  2.58E-02  3.06E-02  5.34E-02  4.52E-02  4.40E-02  3.06E-02  4.45E-02
 res:  4.97E-02  4.00E-02  3.54E-02  3.18E-02  3.71E-02  3.83E-02  3.78E-02  4.05E-02
 res:  2.94E-02  2.20E-02  3.32E-02  2.31E-02  2.67E-02  2.25E-02  5.24E-02  6.51E-02
 res:  3.97E-02  7.45E-02  6.76E-02  1.32E-01  1.20E-01  1.15E-01  1.18E-01  2.11E-01
 res:  1.24E-01  1.13E-01  1.65E-01  1.58E-01  1.69E-01  1.56E-01  1.66E-01  1.67E-01
 res:  1.92E-01  1.84E-01  2.00E-01  1.79E-01  1.98E-01  1.69E-01  1.69E-01  1.99E-01
 res:  2.05E-01  1.77E-01  1.78E-01
 ene: -3.88E+00 -3.62E+00 -3.54E+00 -3.51E+00 -3.46E+00 -3.41E+00 -3.39E+00 -3.36E+00
 ene: -2.72E+00 -2.46E+00 -2.46E+00 -2.34E+00 -2.34E+00 -2.33E+00 -2.24E+00 -2.23E+00
 ene: -2.23E+00 -2.23E+00 -2.22E+00 -2.21E+00 -2.20E+00 -2.19E+00 -2.17E+00 -2.17E+00
 ene: -2.13E+00 -2.13E+00 -2.12E+00 -2.12E+00 -2.11E+00 -2.11E+00 -2.11E+00 -2.09E+00
 ene: -2.08E+00 -2.08E+00 -2.08E+00 -1.97E+00 -1.35E+00 -1.34E+00 -1.34E+00 -1.27E+00
 ene: -1.26E+00 -1.23E+00 -1.23E+00 -1.21E+00 -1.20E+00 -1.10E+00 -1.08E+00 -1.08E+00
 ene: -8.82E-01 -8.41E-01 -8.12E-01 -8.04E-01 -7.74E-01 -7.59E-01 -7.52E-01 -7.19E-01
 ene: -6.58E-01 -6.46E-01 -6.34E-01 -5.72E-01 -5.71E-01 -5.24E-01 -4.90E-01 -4.78E-01
 ene: -4.53E-01 -4.39E-01 -4.35E-01 -4.27E-01 -4.11E-01 -3.85E-01 -3.70E-01 -3.52E-01
 ene: -3.50E-01 -3.33E-01 -3.31E-01 -3.26E-01 -3.23E-01 -3.18E-01 -3.10E-01 -3.02E-01
 ene: -3.00E-01 -2.84E-01 -2.69E-01 -2.67E-01 -2.64E-01 -2.62E-01 -2.60E-01 -2.59E-01
 ene: -2.56E-01 -2.51E-01 -2.43E-01 -2.37E-01 -2.33E-01 -2.24E-01 -2.20E-01 -2.15E-01
 ene: -2.04E-01 -1.90E-01 -1.77E-01 -1.69E-01 -1.58E-01 -1.52E-01 -1.42E-01 -1.21E-01
 ene: -1.08E-01 -9.20E-02 -8.38E-02 -7.92E-02 -6.99E-02 -5.66E-02 -4.58E-02 -3.11E-02
 ene: -1.86E-02 -4.68E-03  4.69E-03  1.54E-02  6.02E-02  6.68E-02  1.02E-01  1.44E-01
 ene:  2.04E-01  2.20E-01  2.83E-01
 vtowfk : number of one-way 3D ffts skipped in vtowfk until now =21
     eigenvalues (hartree) for  123  bands
              after    2 non-SCF iterations with    4 CG line minimizations
 -3.8809E+00 -3.6153E+00 -3.5354E+00 -3.5062E+00 -3.4605E+00 -3.4121E+00
 -3.3910E+00 -3.3599E+00 -2.7226E+00 -2.4613E+00 -2.4603E+00 -2.3416E+00
 -2.3389E+00 -2.3258E+00 -2.2434E+00 -2.2317E+00 -2.2298E+00 -2.2259E+00
 -2.2227E+00 -2.2126E+00 -2.2002E+00 -2.1927E+00 -2.1706E+00 -2.1665E+00
 -2.1331E+00 -2.1309E+00 -2.1227E+00 -2.1176E+00 -2.1129E+00 -2.1089E+00
 -2.1067E+00 -2.0890E+00 -2.0839E+00 -2.0811E+00 -2.0791E+00 -1.9668E+00
 -1.3452E+00 -1.3396E+00 -1.3360E+00 -1.2719E+00 -1.2568E+00 -1.2350E+00
 -1.2320E+00 -1.2119E+00 -1.1953E+00 -1.1031E+00 -1.0821E+00 -1.0755E+00
 -8.8233E-01 -8.4079E-01 -8.1155E-01 -8.0387E-01 -7.7358E-01 -7.5909E-01
 -7.5238E-01 -7.1865E-01 -6.5755E-01 -6.4560E-01 -6.3414E-01 -5.7203E-01
 -5.7125E-01 -5.2423E-01 -4.8963E-01 -4.7784E-01 -4.5269E-01 -4.3867E-01
 -4.3495E-01 -4.2734E-01 -4.1089E-01 -3.8471E-01 -3.6990E-01 -3.5205E-01
 -3.5019E-01 -3.3296E-01 -3.3062E-01 -3.2594E-01 -3.2302E-01 -3.1774E-01
 -3.0975E-01 -3.0206E-01 -3.0017E-01 -2.8443E-01 -2.6878E-01 -2.6713E-01
 -2.6439E-01 -2.6226E-01 -2.5988E-01 -2.5850E-01 -2.5575E-01 -2.5102E-01
 -2.4311E-01 -2.3724E-01 -2.3335E-01 -2.2388E-01 -2.1952E-01 -2.1474E-01
 -2.0406E-01 -1.9008E-01 -1.7729E-01 -1.6943E-01 -1.5829E-01 -1.5179E-01
 -1.4206E-01 -1.2127E-01 -1.0758E-01 -9.1979E-02 -8.3783E-02 -7.9166E-02
 -6.9917E-02 -5.6610E-02 -4.5788E-02 -3.1084E-02 -1.8565E-02 -4.6811E-03
  4.6917E-03  1.5383E-02  6.0199E-02  6.6837E-02  1.0208E-01  1.4422E-01
  2.0370E-01  2.2023E-01  2.8252E-01
 non-scf iterations; kpt #     2  , k= (  0.37500  0.50000  0.50000  ), band residuals:
 res:  9.80E-04  1.21E-03  1.35E-03  9.11E-04  9.39E-04  4.63E-04  1.09E-03  1.83E-03
 res:  1.01E-03  1.14E-03  3.03E-03  3.48E-02  3.53E-02  4.34E-03  3.27E-03  3.13E-03
 res:  9.60E-04  1.05E-03  4.64E-04  1.08E-03  8.92E-04  1.02E-03  8.37E-04  7.25E-04
 res:  3.45E-03  2.49E-04  1.24E-03  1.78E-03  4.10E-03  5.16E-04  2.89E-04  1.70E-03
 res:  1.22E-03  9.61E-04  1.34E-03  7.57E-04  1.36E-02  1.48E-02  1.82E-02  1.21E-02
 res:  1.41E-02  1.42E-02  1.78E-02  2.06E-02  2.50E-02  2.10E-02  2.02E-02  2.28E-02
 res:  1.56E-03  1.73E-03  4.36E-03  7.64E-03  8.37E-03  1.05E-02  4.16E-03  6.56E-03
 res:  8.79E-03  5.49E-03  9.29E-02  4.81E-02  2.64E-02  1.15E-02  3.79E-03  4.55E-02
 res:  2.14E-02  3.13E-02  1.85E-02  2.24E-02  4.35E-02  8.14E-02  6.85E-02  4.51E-02
 res:  5.28E-02  5.32E-02  3.73E-02  4.46E-02  4.76E-02  4.58E-02  5.11E-02  3.42E-02
 res:  5.53E-02  4.67E-02  4.65E-02  4.17E-02  2.73E-02  3.18E-02  4.57E-02  4.91E-02
 res:  5.55E-02  4.29E-02  7.85E-02  4.27E-02  5.22E-02  4.70E-02  4.34E-02  5.09E-02
 res:  6.02E-02  3.43E-02  7.91E-02  7.24E-02  1.65E-01  5.81E-02  1.05E-01  1.34E-01
 res:  9.64E-02  9.89E-02  8.58E-02  1.18E-01  9.40E-02  1.07E-01  1.33E-01  1.18E-01
 res:  1.33E-01  1.65E-01  1.40E-01  1.56E-01  1.48E-01  1.67E-01  1.70E-01  1.84E-01
 res:  1.96E-01  1.81E-01  1.99E-01
 ene: -3.88E+00 -3.62E+00 -3.54E+00 -3.51E+00 -3.46E+00 -3.41E+00 -3.39E+00 -3.36E+00
 ene: -2.72E+00 -2.46E+00 -2.46E+00 -2.34E+00 -2.34E+00 -2.33E+00 -2.24E+00 -2.23E+00
 ene: -2.23E+00 -2.23E+00 -2.22E+00 -2.21E+00 -2.20E+00 -2.19E+00 -2.17E+00 -2.17E+00
 ene: -2.13E+00 -2.13E+00 -2.12E+00 -2.12E+00 -2.11E+00 -2.11E+00 -2.11E+00 -2.09E+00
 ene: -2.08E+00 -2.08E+00 -2.08E+00 -1.97E+00 -1.35E+00 -1.34E+00 -1.34E+00 -1.27E+00
 ene: -1.26E+00 -1.23E+00 -1.23E+00 -1.22E+00 -1.20E+00 -1.10E+00 -1.08E+00 -1.08E+00
 ene: -8.76E-01 -8.34E-01 -8.12E-01 -8.04E-01 -7.73E-01 -7.53E-01 -7.47E-01 -7.16E-01
 ene: -6.53E-01 -6.49E-01 -6.33E-01 -5.68E-01 -5.64E-01 -5.22E-01 -4.90E-01 -4.77E-01
 ene: -4.52E-01 -4.46E-01 -4.34E-01 -4.25E-01 -4.09E-01 -3.84E-01 -3.66E-01 -3.56E-01
 ene: -3.45E-01 -3.35E-01 -3.35E-01 -3.25E-01 -3.20E-01 -3.17E-01 -3.07E-01 -3.01E-01
 ene: -2.98E-01 -2.74E-01 -2.68E-01 -2.66E-01 -2.65E-01 -2.63E-01 -2.62E-01 -2.59E-01
 ene: -2.56E-01 -2.50E-01 -2.47E-01 -2.40E-01 -2.36E-01 -2.29E-01 -2.23E-01 -2.18E-01
 ene: -2.13E-01 -1.96E-01 -1.90E-01 -1.78E-01 -1.68E-01 -1.59E-01 -1.38E-01 -1.28E-01
 ene: -1.13E-01 -1.03E-01 -8.35E-02 -8.13E-02 -6.95E-02 -5.83E-02 -5.02E-02 -3.25E-02
 ene: -2.45E-02  8.66E-04  1.21E-02  3.51E-02  5.10E-02  8.31E-02  1.24E-01  1.44E-01
 ene:  1.71E-01  2.02E-01  2.26E-01
 vtowfk : number of one-way 3D ffts skipped in vtowfk until now =24
     eigenvalues (hartree) for  123  bands
              after    2 non-SCF iterations with    4 CG line minimizations
 -3.8809E+00 -3.6153E+00 -3.5354E+00 -3.5062E+00 -3.4605E+00 -3.4121E+00
 -3.3910E+00 -3.3600E+00 -2.7226E+00 -2.4614E+00 -2.4603E+00 -2.3416E+00
 -2.3389E+00 -2.3258E+00 -2.2434E+00 -2.2318E+00 -2.2298E+00 -2.2259E+00
 -2.2227E+00 -2.2126E+00 -2.2002E+00 -2.1927E+00 -2.1706E+00 -2.1665E+00
 -2.1334E+00 -2.1309E+00 -2.1227E+00 -2.1176E+00 -2.1129E+00 -2.1089E+00
 -2.1068E+00 -2.0891E+00 -2.0839E+00 -2.0811E+00 -2.0791E+00 -1.9669E+00
 -1.3455E+00 -1.3404E+00 -1.3361E+00 -1.2731E+00 -1.2570E+00 -1.2344E+00
 -1.2327E+00 -1.2156E+00 -1.1957E+00 -1.1032E+00 -1.0829E+00 -1.0763E+00
 -8.7632E-01 -8.3411E-01 -8.1153E-01 -8.0391E-01 -7.7347E-01 -7.5265E-01
 -7.4723E-01 -7.1590E-01 -6.5297E-01 -6.4942E-01 -6.3265E-01 -5.6761E-01
 -5.6448E-01 -5.2212E-01 -4.8993E-01 -4.7664E-01 -4.5177E-01 -4.4617E-01
 -4.3438E-01 -4.2478E-01 -4.0923E-01 -3.8378E-01 -3.6631E-01 -3.5569E-01
 -3.4513E-01 -3.3523E-01 -3.3498E-01 -3.2478E-01 -3.2029E-01 -3.1736E-01
 -3.0731E-01 -3.0096E-01 -2.9832E-01 -2.7356E-01 -2.6787E-01 -2.6615E-01
 -2.6493E-01 -2.6342E-01 -2.6210E-01 -2.5910E-01 -2.5629E-01 -2.4976E-01
 -2.4674E-01 -2.4005E-01 -2.3568E-01 -2.2890E-01 -2.2274E-01 -2.1827E-01
 -2.1337E-01 -1.9564E-01 -1.9045E-01 -1.7805E-01 -1.6773E-01 -1.5936E-01
 -1.3809E-01 -1.2816E-01 -1.1326E-01 -1.0319E-01 -8.3521E-02 -8.1323E-02
 -6.9460E-02 -5.8296E-02 -5.0211E-02 -3.2485E-02 -2.4535E-02  8.6634E-04
  1.2119E-02  3.5145E-02  5.0979E-02  8.3107E-02  1.2359E-01  1.4376E-01
  1.7100E-01  2.0171E-01  2.2589E-01
 Total charge density [el/Bohr^3]
      Maximum=    2.3484E+00  at reduced coord.    0.0469    0.9688    0.6344
      Minimum=    1.6525E-04  at reduced coord.    0.4688    0.6250    0.9406
   Integrated=    2.4000E+02
 ETOT  4  -1315.3275062511    -6.168E+02 2.113E-01 5.867E+07
 scprqt: <Vxc>= -2.8683717E-01 hartree

 Pulay update with  3 previous iterations:
 mixing of old trial potential : alpha(m:m-4)=  0.442      0.724E-01  0.993E-02  0.475
 scfcv: previous iteration took 03:33

 ITER STEP NUMBER     5
 vtorho : nnsclo_now=1, note that nnsclo,dbl_nnsclo,istep=0 0 5
 non-scf iterations; kpt #     1  , k= (  0.12500  0.50000  0.50000  ), band residuals:
 res:  3.97E-03  3.53E-03  2.49E-03  1.43E-03  1.82E-03  1.08E-03  7.36E-04  6.53E-04
 res:  2.35E-03  1.86E-03  2.11E-03  2.60E-03  1.79E-03  1.37E-03  6.41E-04  1.32E-03
 res:  6.28E-04  2.87E-03  2.88E-04  6.04E-04  3.17E-03  5.13E-03  9.57E-04  8.14E-04
 res:  3.18E-04  8.02E-04  5.32E-04  1.31E-03  2.63E-04  2.36E-04  2.03E-04  1.64E-04
 res:  3.90E-04  2.96E-04  5.92E-04  1.79E-04  3.83E-04  2.26E-04  3.09E-04  4.74E-04
 res:  4.19E-04  2.08E-04  7.90E-04  5.95E-04  1.84E-04  8.61E-04  3.98E-04  4.87E-04
 res:  1.38E-03  2.30E-03  6.52E-04  4.23E-04  3.75E-03  3.03E-03  2.52E-03  6.62E-04
 res:  1.48E-03  1.19E-03  2.46E-03  1.30E-03  1.71E-03  3.46E-04  1.22E-03  4.00E-04
 res:  4.83E-04  2.32E-03  7.35E-04  2.79E-03  9.49E-04  2.38E-03  4.35E-03  3.10E-03
 res:  3.07E-03  2.32E-03  2.31E-03  3.12E-03  2.05E-03  2.98E-03  2.72E-03  3.21E-03
 res:  1.76E-03  1.33E-02  6.10E-03  4.19E-03  1.87E-03  1.34E-03  3.75E-03  1.98E-03
 res:  4.96E-03  8.57E-03  1.25E-02  3.83E-03  1.12E-02  5.09E-03  1.31E-02  3.44E-03
 res:  1.47E-02  1.07E-02  1.47E-02  1.29E-02  8.76E-03  1.75E-02  2.14E-02  1.87E-02
 res:  1.37E-02  1.15E-02  6.42E-03  1.71E-02  8.12E-03  1.25E-02  1.73E-02  1.14E-02
 res:  1.32E-02  1.93E-02  1.92E-02  2.01E-02  6.64E-02  4.56E-02  4.46E-02  5.20E-02
 res:  7.69E-02  5.93E-02  6.73E-02
 ene: -3.46E+00 -3.21E+00 -3.20E+00 -3.18E+00 -3.17E+00 -3.17E+00 -3.14E+00 -3.13E+00
 ene: -2.34E+00 -2.15E+00 -2.13E+00 -2.09E+00 -2.08E+00 -2.08E+00 -2.06E+00 -2.02E+00
 ene: -1.98E+00 -1.96E+00 -1.96E+00 -1.93E+00 -1.93E+00 -1.92E+00 -1.91E+00 -1.90E+00
 ene: -1.90E+00 -1.90E+00 -1.90E+00 -1.89E+00 -1.89E+00 -1.89E+00 -1.88E+00 -1.87E+00
 ene: -1.87E+00 -1.86E+00 -1.84E+00 -1.80E+00 -1.28E+00 -1.27E+00 -1.27E+00 -1.27E+00
 ene: -1.26E+00 -1.24E+00 -1.23E+00 -1.22E+00 -1.21E+00 -1.19E+00 -1.17E+00 -1.17E+00
 ene: -7.98E-01 -7.73E-01 -6.83E-01 -6.72E-01 -6.26E-01 -6.23E-01 -6.13E-01 -5.92E-01
 ene: -4.99E-01 -4.94E-01 -4.54E-01 -3.03E-01 -3.01E-01 -2.73E-01 -2.64E-01 -2.58E-01
 ene: -2.52E-01 -2.43E-01 -2.34E-01 -2.30E-01 -2.29E-01 -2.16E-01 -2.15E-01 -2.07E-01
 ene: -1.90E-01 -1.79E-01 -1.74E-01 -1.67E-01 -1.65E-01 -1.61E-01 -1.58E-01 -1.49E-01
 ene: -1.43E-01 -1.41E-01 -1.37E-01 -1.33E-01 -1.31E-01 -1.27E-01 -1.26E-01 -1.25E-01
 ene: -1.20E-01 -1.17E-01 -1.11E-01 -1.10E-01 -1.08E-01 -1.01E-01 -9.92E-02 -9.54E-02
 ene: -9.17E-02 -8.95E-02 -8.48E-02 -7.80E-02 -7.35E-02 -7.12E-02 -6.96E-02 -6.74E-02
 ene: -6.33E-02 -6.10E-02 -5.87E-02 -4.86E-02 -4.47E-02 -3.96E-02 -2.48E-02 -2.31E-02
 ene: -1.67E-02 -2.83E-03  2.22E-03  1.80E-02  2.15E-02  3.93E-02  8.18E-02  8.37E-02
 ene:  1.41E-01  1.48E-01  1.69E-01
 vtowfk : number of one-way 3D ffts skipped in vtowfk until now =27
     eigenvalues (hartree) for  123  bands
              after    2 non-SCF iterations with    4 CG line minimizations
 -3.4579E+00 -3.2106E+00 -3.2020E+00 -3.1786E+00 -3.1704E+00 -3.1670E+00
 -3.1407E+00 -3.1328E+00 -2.3357E+00 -2.1530E+00 -2.1312E+00 -2.0916E+00
 -2.0835E+00 -2.0802E+00 -2.0565E+00 -2.0247E+00 -1.9817E+00 -1.9575E+00
 -1.9563E+00 -1.9327E+00 -1.9293E+00 -1.9174E+00 -1.9125E+00 -1.9034E+00
 -1.9003E+00 -1.8998E+00 -1.8986E+00 -1.8935E+00 -1.8903E+00 -1.8900E+00
 -1.8753E+00 -1.8701E+00 -1.8672E+00 -1.8649E+00 -1.8447E+00 -1.7967E+00
 -1.2793E+00 -1.2744E+00 -1.2734E+00 -1.2674E+00 -1.2561E+00 -1.2427E+00
 -1.2295E+00 -1.2192E+00 -1.2053E+00 -1.1896E+00 -1.1746E+00 -1.1704E+00
 -7.9835E-01 -7.7296E-01 -6.8334E-01 -6.7174E-01 -6.2622E-01 -6.2298E-01
 -6.1316E-01 -5.9230E-01 -4.9932E-01 -4.9421E-01 -4.5377E-01 -3.0279E-01
 -3.0121E-01 -2.7302E-01 -2.6414E-01 -2.5764E-01 -2.5209E-01 -2.4297E-01
 -2.3364E-01 -2.3048E-01 -2.2872E-01 -2.1557E-01 -2.1479E-01 -2.0720E-01
 -1.9001E-01 -1.7934E-01 -1.7439E-01 -1.6688E-01 -1.6544E-01 -1.6089E-01
 -1.5810E-01 -1.4901E-01 -1.4285E-01 -1.4112E-01 -1.3711E-01 -1.3259E-01
 -1.3126E-01 -1.2652E-01 -1.2610E-01 -1.2503E-01 -1.1982E-01 -1.1718E-01
 -1.1123E-01 -1.0965E-01 -1.0752E-01 -1.0058E-01 -9.9219E-02 -9.5445E-02
 -9.1688E-02 -8.9529E-02 -8.4757E-02 -7.7989E-02 -7.3513E-02 -7.1190E-02
 -6.9612E-02 -6.7397E-02 -6.3252E-02 -6.1048E-02 -5.8723E-02 -4.8562E-02
 -4.4672E-02 -3.9631E-02 -2.4767E-02 -2.3081E-02 -1.6666E-02 -2.8294E-03
  2.2200E-03  1.7958E-02  2.1526E-02  3.9339E-02  8.1830E-02  8.3746E-02
  1.4059E-01  1.4839E-01  1.6938E-01
 non-scf iterations; kpt #     2  , k= (  0.37500  0.50000  0.50000  ), band residuals:
 res:  4.26E-03  3.58E-03  2.79E-03  1.67E-03  1.91E-03  1.14E-03  7.38E-04  6.80E-04
 res:  2.38E-03  1.73E-03  2.01E-03  2.61E-03  1.75E-03  1.42E-03  6.22E-04  1.50E-03
 res:  1.02E-03  2.83E-03  2.88E-04  7.54E-04  3.28E-03  4.72E-03  8.38E-04  7.46E-04
 res:  2.52E-04  7.79E-04  5.94E-04  1.37E-03  3.16E-04  2.84E-04  3.55E-04  1.39E-04
 res:  4.03E-04  2.50E-04  6.11E-04  1.79E-04  3.61E-04  2.38E-04  3.15E-04  4.16E-04
 res:  4.65E-04  3.46E-04  7.19E-04  2.00E-04  2.00E-04  8.74E-04  3.97E-04  3.81E-04
 res:  1.46E-03  2.59E-03  5.72E-04  3.96E-04  4.37E-03  3.25E-03  2.72E-03  8.48E-04
 res:  1.67E-03  7.41E-04  3.14E-03  2.11E-03  1.72E-03  5.92E-04  1.03E-03  1.00E-03
 res:  5.17E-04  1.62E-03  1.65E-03  2.78E-03  1.45E-03  3.08E-03  6.04E-03  2.62E-03
 res:  5.28E-03  2.08E-03  1.87E-03  1.72E-03  3.13E-03  5.31E-03  2.83E-03  2.92E-03
 res:  4.06E-03  5.04E-03  7.86E-03  5.53E-03  3.78E-03  4.06E-03  3.54E-03  3.07E-03
 res:  4.80E-03  1.18E-02  1.25E-02  4.19E-03  4.67E-03  1.46E-02  7.80E-03  1.21E-02
 res:  7.20E-03  1.47E-02  1.35E-02  1.28E-02  1.68E-02  2.17E-02  7.91E-03  9.93E-03
 res:  9.83E-03  1.73E-02  1.18E-02  7.66E-03  1.04E-02  1.42E-02  1.16E-02  1.57E-02
 res:  1.23E-02  2.71E-02  1.49E-02  2.31E-02  4.12E-02  4.85E-02  7.92E-02  8.28E-02
 res:  5.64E-02  5.20E-02  7.00E-02
 ene: -3.46E+00 -3.21E+00 -3.20E+00 -3.18E+00 -3.17E+00 -3.17E+00 -3.14E+00 -3.13E+00
 ene: -2.34E+00 -2.15E+00 -2.13E+00 -2.09E+00 -2.08E+00 -2.08E+00 -2.06E+00 -2.02E+00
 ene: -1.98E+00 -1.96E+00 -1.96E+00 -1.93E+00 -1.93E+00 -1.92E+00 -1.91E+00 -1.90E+00
 ene: -1.90E+00 -1.90E+00 -1.90E+00 -1.89E+00 -1.89E+00 -1.89E+00 -1.88E+00 -1.87E+00
 ene: -1.87E+00 -1.86E+00 -1.84E+00 -1.80E+00 -1.28E+00 -1.27E+00 -1.27E+00 -1.27E+00
 ene: -1.26E+00 -1.24E+00 -1.23E+00 -1.22E+00 -1.21E+00 -1.19E+00 -1.17E+00 -1.17E+00
 ene: -7.98E-01 -7.73E-01 -6.83E-01 -6.72E-01 -6.26E-01 -6.21E-01 -6.15E-01 -5.93E-01
 ene: -4.99E-01 -4.94E-01 -4.54E-01 -3.03E-01 -3.00E-01 -2.73E-01 -2.63E-01 -2.58E-01
 ene: -2.52E-01 -2.43E-01 -2.33E-01 -2.30E-01 -2.30E-01 -2.16E-01 -2.14E-01 -2.08E-01
 ene: -1.91E-01 -1.79E-01 -1.71E-01 -1.68E-01 -1.65E-01 -1.60E-01 -1.55E-01 -1.48E-01
 ene: -1.43E-01 -1.39E-01 -1.36E-01 -1.34E-01 -1.30E-01 -1.26E-01 -1.24E-01 -1.23E-01
 ene: -1.20E-01 -1.18E-01 -1.12E-01 -1.08E-01 -1.07E-01 -1.04E-01 -1.04E-01 -9.52E-02
 ene: -9.33E-02 -8.84E-02 -8.42E-02 -8.23E-02 -7.57E-02 -7.14E-02 -6.92E-02 -6.80E-02
 ene: -6.56E-02 -6.15E-02 -5.87E-02 -4.66E-02 -4.35E-02 -2.98E-02 -2.21E-02 -1.41E-02
 ene: -1.12E-02  5.11E-03  1.60E-02  2.58E-02  4.53E-02  5.16E-02  9.48E-02  1.01E-01
 ene:  1.08E-01  1.55E-01  1.89E-01
 vtowfk : number of one-way 3D ffts skipped in vtowfk until now =30
     eigenvalues (hartree) for  123  bands
              after    2 non-SCF iterations with    4 CG line minimizations
 -3.4580E+00 -3.2106E+00 -3.2020E+00 -3.1786E+00 -3.1705E+00 -3.1669E+00
 -3.1407E+00 -3.1328E+00 -2.3357E+00 -2.1530E+00 -2.1312E+00 -2.0916E+00
 -2.0836E+00 -2.0804E+00 -2.0565E+00 -2.0246E+00 -1.9817E+00 -1.9575E+00
 -1.9563E+00 -1.9325E+00 -1.9293E+00 -1.9174E+00 -1.9124E+00 -1.9034E+00
 -1.9002E+00 -1.8999E+00 -1.8986E+00 -1.8935E+00 -1.8903E+00 -1.8900E+00
 -1.8753E+00 -1.8701E+00 -1.8672E+00 -1.8649E+00 -1.8447E+00 -1.7967E+00
 -1.2793E+00 -1.2745E+00 -1.2734E+00 -1.2674E+00 -1.2561E+00 -1.2427E+00
 -1.2296E+00 -1.2192E+00 -1.2054E+00 -1.1896E+00 -1.1746E+00 -1.1704E+00
 -7.9812E-01 -7.7265E-01 -6.8337E-01 -6.7166E-01 -6.2588E-01 -6.2073E-01
 -6.1539E-01 -5.9279E-01 -4.9938E-01 -4.9420E-01 -4.5375E-01 -3.0321E-01
 -2.9952E-01 -2.7278E-01 -2.6314E-01 -2.5756E-01 -2.5196E-01 -2.4290E-01
 -2.3350E-01 -2.3001E-01 -2.2961E-01 -2.1552E-01 -2.1377E-01 -2.0809E-01
 -1.9061E-01 -1.7940E-01 -1.7125E-01 -1.6819E-01 -1.6549E-01 -1.5986E-01
 -1.5493E-01 -1.4842E-01 -1.4251E-01 -1.3938E-01 -1.3629E-01 -1.3434E-01
 -1.3010E-01 -1.2571E-01 -1.2448E-01 -1.2293E-01 -1.2041E-01 -1.1753E-01
 -1.1166E-01 -1.0837E-01 -1.0683E-01 -1.0443E-01 -1.0380E-01 -9.5243E-02
 -9.3328E-02 -8.8398E-02 -8.4228E-02 -8.2274E-02 -7.5737E-02 -7.1395E-02
 -6.9195E-02 -6.8049E-02 -6.5607E-02 -6.1538E-02 -5.8719E-02 -4.6572E-02
[...]
  6.75E-03 1.21E-02 5.06E-03 2.18E-03 1.28E-02 8.48E-04 2.96E-03 3.40E-03
  2.79E-03 5.25E-03 6.49E-03 2.00E-02 2.43E-02 3.17E-02 1.62E-02 8.90E-03
  2.89E-02 1.15E-02 1.14E-02 4.58E-02 1.91E-02 8.04E-02 5.53E-02 1.55E-02
  1.89E-02 1.19E-02 8.53E-03 2.25E-02 2.88E-02 1.89E-02 1.70E-02 4.22E-02
  3.28E-02 4.25E-02 1.56E-02 4.64E-02 9.05E-02 3.30E-02 5.46E-02 5.09E-02
  6.72E-02 5.79E-02 2.60E-02
   0.3750  0.5000  0.5000    1  2.74186E-01 kpt; spin; max resid(k); each band:
  1.59E-03 1.51E-03 4.84E-04 2.59E-04 3.66E-04 8.02E-04 8.26E-04 6.21E-04
  7.14E-04 8.27E-04 8.40E-04 8.52E-04 6.59E-04 5.60E-04 3.45E-04 7.23E-04
  7.26E-04 2.30E-04 2.66E-04 3.26E-04 4.08E-04 2.35E-04 4.29E-04 5.57E-03
  4.88E-03 3.31E-04 2.17E-04 2.94E-04 7.98E-04 5.93E-04 1.38E-03 1.39E-03
  1.08E-03 1.57E-03 4.65E-04 1.25E-03 2.81E-04 1.16E-03 9.57E-04 7.25E-04
  3.84E-04 2.67E-04 7.83E-04 1.45E-03 1.47E-03 8.61E-04 5.50E-04 3.01E-04
  1.75E-03 5.46E-03 3.70E-04 4.11E-04 1.32E-03 2.47E-03 5.12E-03 1.07E-03
  5.74E-04 2.60E-03 1.25E-03 6.30E-04 2.21E-02 2.13E-02 4.29E-04 1.48E-03
  2.80E-03 2.94E-03 4.39E-03 2.87E-03 1.44E-03 4.35E-04 1.17E-03 9.99E-04
  1.16E-03 5.68E-04 3.47E-02 2.48E-02 2.29E-02 2.06E-03 7.43E-03 3.15E-02
  1.82E-02 6.65E-02 5.56E-02 1.73E-03 1.19E-02 2.09E-03 2.40E-03 3.22E-03
  4.51E-03 3.09E-03 2.88E-02 1.69E-02 1.72E-02 6.01E-03 1.68E-02 7.28E-03
  9.64E-03 1.12E-02 5.01E-03 1.88E-02 2.74E-01 1.97E-02 1.61E-03 7.16E-03
  1.05E-02 1.19E-02 1.02E-02 1.77E-02 1.30E-02 3.30E-02 1.26E-01 2.58E-02
  1.56E-02 5.91E-02 1.34E-01 8.78E-02 5.14E-02 2.35E-02 3.10E-02 8.86E-02
  4.90E-02 3.61E-02 3.50E-02

 outwf: write wavefunction to file DOSwithoutGeom2Layer_o_WFK, with iomode -1
 outwf with iomode: -1, cpu_time:     0.89[s], walltime:     0.93 [s]
 prteigrs : about to open file DOSwithoutGeom2Layer_o_EIG
 Fermi (or HOMO) energy (hartree) =   0.24391   Average Vxc (hartree)=  -0.32062
 Eigenvalues (hartree) for nkpt=   2  k points:
 kpt#   1, nband=123, wtk=  0.50000, kpt=  0.1250  0.5000  0.5000 (reduced coord)
  -3.10651   -2.93437   -2.93000   -2.92589   -2.85169   -2.84587   -2.84247   -2.79182
  -2.35949   -2.22938   -2.10963   -2.00131   -1.91642   -1.74699   -1.73694   -1.73092
  -1.68831   -1.67582   -1.66762   -1.66465   -1.66148   -1.65966   -1.65733   -1.65061
  -1.64788   -1.61537   -1.60314   -1.59563   -1.58734   -1.58479   -1.57767   -1.57193
  -1.54568   -1.53017   -1.51355   -1.49019   -1.48353   -1.46609   -1.45661   -1.35261
  -1.34963   -1.34411   -1.25574   -1.24371   -1.23607   -1.06401   -1.05515   -1.03866
  -0.91663   -0.77750   -0.66444   -0.65081   -0.55382   -0.53544   -0.47317   -0.38091
  -0.37179   -0.34027   -0.33740   -0.29287   -0.22952   -0.20330   -0.19083   -0.16957
  -0.16504   -0.15826   -0.15526   -0.13788   -0.12536   -0.11762   -0.10950   -0.09633
  -0.08396   -0.07020   -0.06020   -0.03579   -0.03174   -0.03055   -0.02418   -0.01422
  -0.00474    0.00950    0.01629    0.01832    0.03077    0.04795    0.05166    0.05490
   0.05774    0.05894    0.06231    0.06629    0.07236    0.07444    0.07899    0.09078
   0.09254    0.09602    0.10392    0.10710    0.11444    0.11649    0.12096    0.12438
   0.13041    0.13293    0.13922    0.14263    0.14772    0.15190    0.15985    0.16937
   0.17161    0.17711    0.18094    0.18770    0.19848    0.20570    0.22784    0.24391
   0.26465    0.27527    0.31194
 kpt#   2, nband=123, wtk=  0.50000, kpt=  0.3750  0.5000  0.5000 (reduced coord)
  -3.10647   -2.93434   -2.93000   -2.92588   -2.85167   -2.84595   -2.84247   -2.79181
  -2.35952   -2.22938   -2.10963   -2.00130   -1.91642   -1.74693   -1.73693   -1.73090
  -1.68831   -1.67583   -1.66762   -1.66465   -1.66148   -1.65965   -1.65733   -1.65059
  -1.64788   -1.61531   -1.60312   -1.59563   -1.58734   -1.58478   -1.57766   -1.57194
  -1.54568   -1.53017   -1.51353   -1.49022   -1.48354   -1.46611   -1.45662   -1.35262
  -1.34963   -1.34413   -1.25576   -1.24373   -1.23612   -1.06403   -1.05513   -1.03872
  -0.91646   -0.77756   -0.66414   -0.65062   -0.55331   -0.53619   -0.47303   -0.38232
  -0.37214   -0.34040   -0.33122   -0.29335   -0.23578   -0.20301   -0.19067   -0.17397
  -0.16486   -0.15851   -0.14692   -0.12040   -0.11536   -0.10187   -0.08826   -0.07992
  -0.07153   -0.06356   -0.03702   -0.02698   -0.02433   -0.01973   -0.01276    0.00078
   0.00967    0.01879    0.02003    0.04306    0.04821    0.05512    0.05854    0.05970
   0.06395    0.06544    0.07007    0.07565    0.07914    0.08021    0.08484    0.09407
   0.09920    0.10152    0.10278    0.10800    0.11350    0.11624    0.11864    0.12492
   0.12877    0.13275    0.13654    0.14275    0.14752    0.15466    0.16316    0.16648
   0.17390    0.17901    0.18797    0.19236    0.19790    0.21055    0.21923    0.23199
   0.25158    0.26065    0.27638
 Total charge density [el/Bohr^3]
      Maximum=    1.9574E+00  at reduced coord.    0.1719    0.0313    0.5219
 Next maximum=    1.9568E+00  at reduced coord.    0.1563    0.0156    0.5219
      Minimum=    1.9634E-04  at reduced coord.    0.6406    0.5469    0.4125
 Next minimum=    1.9653E-04  at reduced coord.    0.6563    0.5625    0.4094
   Integrated=    2.4000E+02

 Cartesian components of stress tensor (hartree/bohr^3)
  sigma(1 1)= -4.04157343E-03  sigma(3 2)=  8.45368104E-05
  sigma(2 2)= -5.89500802E-03  sigma(3 1)= -1.42406543E-03
  sigma(3 3)=  8.39031594E-03  sigma(2 1)= -1.31551593E-07

-Cartesian components of stress tensor (GPa)         [Pressure=  1.5164E+01 GPa]
- sigma(1 1)= -1.18907176E+02  sigma(3 2)=  2.48715841E+00
- sigma(2 2)= -1.73437095E+02  sigma(3 1)= -4.18974443E+01
- sigma(3 3)=  2.46851576E+02  sigma(2 1)= -3.87038083E-03

== END DATASET(S) ==============================================================
================================================================================
  
 -outvars: echo values of variables after computation  --------
            acell      8.6808000000E+00  8.6808000000E+00  4.5000000000E+01 Bohr
              amu      4.78800000E+01  1.59994000E+01  1.06420000E+02
           diemac      1.20000000E+01
             ecut      6.00000000E+01 Hartree
           etotal     -1.4201127034E+03
            fcart     -1.6680465678E-01  2.2274926809E-02  1.0450804326E+00
                      -4.0739760203E-01  7.7256458369E-01  3.0805470933E+00
                      -4.0869708716E-01  1.8470312940E-01  2.7210695757E+00
                      -3.6777610745E-02  3.8413977279E-01  1.2068779463E+00
                       1.6977906668E-01 -2.2316640433E-01 -1.4183164790E+00
                       1.5888403789E-01 -4.2226267223E-01 -1.3230551877E+00
                       2.3282710089E-01 -1.7455560465E-01 -1.1708040822E+00
                       1.1606076896E-01 -2.1901847254E-01 -2.5368328474E-01
                      -1.2073123727E-01 -2.5913909376E-01 -1.5919111597E+00
                       3.1487832464E-02 -1.4918746276E-02 -6.2089289334E-01
                       2.8485380310E-01  7.6774133913E-03 -9.8490269233E-01
                       2.1367779169E-01 -9.5428300025E-02 -1.5506516668E+00
                      -2.1927513150E-01 -5.5970759968E-02 -2.2814016220E-01
                       1.9575557028E+00 -4.8194046033E-02  2.5624392924E+00
                       5.0617911242E-02 -1.7771034793E-01  2.3353708899E-01
                      -1.5600750660E-01 -3.4177876985E-01  6.4436886120E-01
                       2.4332314957E-02  2.4953307311E-01  2.1054214634E-01
                      -1.7683471725E-01  4.1093093649E-01  7.6384042501E-01
                      -1.6938144787E+00  2.3880833613E-02 -2.7061586331E+00
                       1.4626369734E-01 -2.3561451689E-02 -6.1978662063E-01
-          fftalg         112
              ixc          11
              kpt      1.25000000E-01  5.00000000E-01  5.00000000E-01
                       3.75000000E-01  5.00000000E-01  5.00000000E-01
           kptopt           2
         kptrlatt        4    0    0      0    1    0      0    0    1
          kptrlen      8.68080000E+00
P           mkmem           2
            natom          20
            nband         123
            ngfft          64      64     320
             nkpt           2
             nsym           1
           ntypat           3
              occ      2.000000  2.000000  2.000000  2.000000  2.000000  2.000000
                       2.000000  2.000000  2.000000  2.000000  2.000000  2.000000
                       2.000000  2.000000  2.000000  2.000000  2.000000  2.000000
                       2.000000  2.000000  2.000000  2.000000  2.000000  2.000000
                       2.000000  2.000000  2.000000  2.000000  2.000000  2.000000
                       2.000000  2.000000  2.000000  2.000000  2.000000  2.000000
                       2.000000  2.000000  2.000000  2.000000  2.000000  2.000000
                       2.000000  2.000000  2.000000  2.000000  2.000000  2.000000
                       2.000000  2.000000  2.000000  2.000000  2.000000  2.000000
                       2.000000  2.000000  2.000000  2.000000  2.000000  2.000000
                       2.000000  2.000000  2.000000  2.000000  2.000000  2.000000
                       2.000000  2.000000  2.000000  2.000000  2.000000  2.000000
                       2.000000  2.000000  2.000000  2.000000  2.000000  2.000000
                       2.000000  2.000000  2.000000  2.000000  2.000000  2.000000
                       2.000000  2.000000  2.000000  2.000000  2.000000  2.000000
                       2.000000  2.000000  2.000000  2.000000  2.000000  2.000000
                       2.000000  2.000000  2.000000  2.000000  2.000000  2.000000
                       2.000000  2.000000  2.000000  2.000000  2.000000  2.000000
                       2.000000  2.000000  2.000000  2.000000  2.000000  2.000000
                       2.000000  2.000000  2.000000  2.000000  2.000000  2.000000
                       0.000000  0.000000  0.000000
           prtdos           2
           shiftk      5.00000000E-01  5.00000000E-01  5.00000000E-01
          spgroup           1
           strten     -4.0415734306E-03 -5.8950080228E-03  8.3903159444E-03
                       8.4536810383E-05 -1.4240654281E-03 -1.3155159263E-07
           toldfe      1.00000000E-02 Hartree
            typat      1  1  1  1  2  2  2  2  2  2  2  2  3  3  3  3  3  3  3  3
              wtk        0.50000    0.50000
           xangst      0.0000000000E+00  0.0000000000E+00  0.0000000000E+00
                       0.0000000000E+00  0.0000000000E+00  4.5936815123E+00
                       2.2968407562E+00  1.4793678043E+00  2.2968407562E+00
                       2.2968407562E+00  1.4793678043E+00  6.8905222685E+00
                       3.9876836484E+01  0.0000000000E+00  1.4240158683E+00
                       3.9876836484E+01  0.0000000000E+00  6.0176973806E+00
                       3.1696656440E+00  0.0000000000E+00  3.1696656440E+00
                       3.1696656440E+00  0.0000000000E+00  7.7633471563E+00
                       8.7282488785E-01  1.4793678043E+00  3.7208566245E+00
                       8.7282488785E-01  1.4793678043E+00  8.3145381368E+00
                       3.7208566245E+00  1.4793678043E+00  8.7282488785E-01
                       3.7208566245E+00  1.4793678043E+00  5.4665064002E+00
                       8.7282488785E-01  0.0000000000E+00  1.2097837672E+01
                       8.7282488785E-01  0.0000000000E+00  1.5988560180E+01
                       1.9453612542E+00  1.3755961537E+00  1.3473433826E+01
                       1.9453612542E+00  1.3755961537E+00  1.7364156334E+01
                       1.9453612542E+00 -1.3755961537E+00  1.3473433826E+01
                       1.9453612542E+00 -1.3755961537E+00  1.7364156334E+01
                       0.0000000000E+00  0.0000000000E+00  1.4848977062E+01
                       0.0000000000E+00  0.0000000000E+00  1.8739699570E+01
            xcart      0.0000000000E+00  0.0000000000E+00  0.0000000000E+00
                       0.0000000000E+00  0.0000000000E+00  8.6808000000E+00
                       4.3404000000E+00  2.7956000000E+00  4.3404000000E+00
                       4.3404000000E+00  2.7956000000E+00  1.3021200000E+01
                       7.5356300000E+01  0.0000000000E+00  2.6910000000E+00
                       7.5356300000E+01  0.0000000000E+00  1.1371800000E+01
                       5.9898000000E+00  0.0000000000E+00  5.9898000000E+00
                       5.9898000000E+00  0.0000000000E+00  1.4670600000E+01
                       1.6494000000E+00  2.7956000000E+00  7.0314000000E+00
                       1.6494000000E+00  2.7956000000E+00  1.5712200000E+01
                       7.0314000000E+00  2.7956000000E+00  1.6494000000E+00
                       7.0314000000E+00  2.7956000000E+00  1.0330200000E+01
                       1.6494000000E+00  0.0000000000E+00  2.2861600000E+01
                       1.6494000000E+00  0.0000000000E+00  3.0214000000E+01
                       3.6762000000E+00  2.5995000000E+00  2.5461100000E+01
                       3.6762000000E+00  2.5995000000E+00  3.2813500000E+01
                       3.6762000000E+00 -2.5995000000E+00  2.5461100000E+01
                       3.6762000000E+00 -2.5995000000E+00  3.2813500000E+01
                       0.0000000000E+00  0.0000000000E+00  2.8060500000E+01
                       0.0000000000E+00  0.0000000000E+00  3.5412900000E+01
             xred      0.0000000000E+00  0.0000000000E+00  0.0000000000E+00
                       0.0000000000E+00  0.0000000000E+00  1.9290666667E-01
                       5.0000000000E-01  3.2204405124E-01  9.6453333333E-02
                       5.0000000000E-01  3.2204405124E-01  2.8936000000E-01
                       8.6808013086E+00  0.0000000000E+00  5.9800000000E-02
                       8.6808013086E+00  0.0000000000E+00  2.5270666667E-01
                       6.9000552944E-01  0.0000000000E+00  1.3310666667E-01
                       6.9000552944E-01  0.0000000000E+00  3.2601333333E-01
                       1.9000552944E-01  3.2204405124E-01  1.5625333333E-01
                       1.9000552944E-01  3.2204405124E-01  3.4916000000E-01
                       8.0999447056E-01  3.2204405124E-01  3.6653333333E-02
                       8.0999447056E-01  3.2204405124E-01  2.2956000000E-01
                       1.9000552944E-01  0.0000000000E+00  5.0803555556E-01
                       1.9000552944E-01  0.0000000000E+00  6.7142222222E-01
                       4.2348631463E-01  2.9945396738E-01  5.6580222222E-01
                       4.2348631463E-01  2.9945396738E-01  7.2918888889E-01
                       4.2348631463E-01 -2.9945396738E-01  5.6580222222E-01
                       4.2348631463E-01 -2.9945396738E-01  7.2918888889E-01
                       0.0000000000E+00  0.0000000000E+00  6.2356666667E-01
                       0.0000000000E+00  0.0000000000E+00  7.8695333333E-01
            znucl       22.00000    8.00000   46.00000

================================================================================
  

================================================================================

 Suggested references for the acknowledgment of ABINIT usage.

 The users of ABINIT have little formal obligations with respect to the ABINIT group
 (those specified in the GNU General Public License, http://www.gnu.org/copyleft/gpl.txt).
 However, it is common practice in the scientific literature,
 to acknowledge the efforts of people that have made the research possible.
 In this spirit, please find below suggested citations of work written by ABINIT developers,
 corresponding to implementations inside of ABINIT that you have used in the present run.
 Note also that it will be of great value to readers of publications presenting these results,
 to read papers enabling them to understand the theoretical formalism and details
 of the ABINIT implementation.
 For information on why they are suggested, see also https://www.abinit.org/about/?text=acknowledgments.
-
- [1] Recent developments in the ABINIT software package.
- Computer Phys. Comm. 205, 106 (2016).
- X.Gonze, F.Jollet, F.Abreu Araujo, D.Adams, B.Amadon, T.Applencourt,
- C.Audouze, J.-M.Beuken, J.Bieder, A.Bokhanchuk, E.Bousquet, F.Bruneval
- D.Caliste, M.Cote, F.Dahm, F.Da Pieve, M.Delaveau, M.Di Gennaro,
- B.Dorado, C.Espejo, G.Geneste, L.Genovese, A.Gerossier, M.Giantomassi,
- Y.Gillet, D.R.Hamann, L.He, G.Jomard, J.Laflamme Janssen, S.Le Roux,
- A.Levitt, A.Lherbier, F.Liu, I.Lukacevic, A.Martin, C.Martins,
- M.J.T.Oliveira, S.Ponce, Y.Pouillon, T.Rangel, G.-M.Rignanese,
- A.H.Romero, B.Rousseau, O.Rubel, A.A.Shukri, M.Stankovski, M.Torrent,
- M.J.Van Setten, B.Van Troeye, M.J.Verstraete, D.Waroquier, J.Wiktor,
- B.Xue, A.Zhou, J.W.Zwanziger.
- Comment : the fourth generic paper describing the ABINIT project.
- Note that a version of this paper, that is not formatted for Computer Phys. Comm. 
- is available at https://www.abinit.org/about/ABINIT16.pdf .
- The licence allows the authors to put it on the Web.
-
- [2] Optimized norm-conserving Vanderbilt pseudopotentials.
- D.R. Hamann, Phys. Rev. B 88, 085117 (2013).
- Comment: Some pseudopotential generated using the ONCVPSP code were used.
-
- [3] ABINIT : First-principles approach of materials and nanosystem properties.
- Computer Phys. Comm. 180, 2582-2615 (2009).
- X. Gonze, B. Amadon, P.-M. Anglade, J.-M. Beuken, F. Bottin, P. Boulanger, F. Bruneval,
- D. Caliste, R. Caracas, M. Cote, T. Deutsch, L. Genovese, Ph. Ghosez, M. Giantomassi
- S. Goedecker, D.R. Hamann, P. Hermet, F. Jollet, G. Jomard, S. Leroux, M. Mancini, S. Mazevet,
- M.J.T. Oliveira, G. Onida, Y. Pouillon, T. Rangel, G.-M. Rignanese, D. Sangalli, R. Shaltaf,
- M. Torrent, M.J. Verstraete, G. Zerah, J.W. Zwanziger
- Comment : the third generic paper describing the ABINIT project.
- Note that a version of this paper, that is not formatted for Computer Phys. Comm. 
- is available at https://www.abinit.org/about/ABINIT_CPC_v10.pdf .
- The licence allows the authors to put it on the Web.
-
- [4] A brief introduction to the ABINIT software package.
- Z. Kristallogr. 220, 558-562 (2005).
- X. Gonze, G.-M. Rignanese, M. Verstraete, J.-M. Beuken, Y. Pouillon, R. Caracas, F. Jollet,
- M. Torrent, G. Zerah, M. Mikami, Ph. Ghosez, M. Veithen, J.-Y. Raty, V. Olevano, F. Bruneval,
- L. Reining, R. Godby, G. Onida, D.R. Hamann, and D.C. Allan.
- Comment : the second generic paper describing the ABINIT project. Note that this paper
- should be cited especially if you are using the GW part of ABINIT, as several authors
- of this part are not in the list of authors of the first or third paper.
- The .pdf of the latter paper is available at https://www.abinit.org/about/zfk_0505-06_558-562.pdf.
- Note that it should not redistributed (Copyright by Oldenburg Wissenshaftverlag,
- the licence allows the authors to put it on the Web).
-
- And optionally:
-
- [5] First-principles computation of material properties : the ABINIT software project. 
- X. Gonze, J.-M. Beuken, R. Caracas, F. Detraux, M. Fuchs, G.-M. Rignanese, L. Sindic,
- M. Verstraete, G. Zerah, F. Jollet, M. Torrent, A. Roy, M. Mikami, Ph. Ghosez, J.-Y. Raty, D.C. Allan.
- Computational Materials Science 25, 478-492 (2002). http://dx.doi.org/10.1016/S0927-0256(02)00325-7
- Comment : the original paper describing the ABINIT project.

 Calculation completed.
.Delivered   2 WARNINGs and   2 COMMENTs to log file.

--- !FinalSummary
program: abinit
version: 8.6.3
start_datetime: Mon Apr 23 01:20:15 2018
end_datetime: Mon Apr 23 03:28:09 2018
overall_cpu_time:        6724.9
overall_wall_time:        7674.1
exit_requested_by_user: no 
timelimit: 0
pseudos: 
    Ti  : ea4ed3d71d7ed9998c7c8ddd5e23a4a6
    O   : abbcf0645b4a6d69360cd16bcad3e730
    Pd  : 4144628137bc01fa80f914e5e2c5b797
usepaw: 0
mpi_procs: 1
omp_threads: 1
num_warnings: 2
num_comments: 2
...
