
.Version 8.6.3 of ABINIT 
.(sequential version, prepared for a x86_64_linux_gnu5.4 computer) 

.Copyright (C) 1998-2017 ABINIT group . 
 ABINIT comes with ABSOLUTELY NO WARRANTY.
 It is free software, and you are welcome to redistribute it
 under certain conditions (GNU General Public License,
 see ~abinit/COPYING or http://www.gnu.org/copyleft/gpl.txt).

 ABINIT is a project of the Universite Catholique de Louvain,
 Corning Inc. and other collaborators, see ~abinit/doc/developers/contributors.txt .
 Please read ~abinit/doc/users/acknowledgments.html for suggested
 acknowledgments of the ABINIT effort.
 For more information, see https://www.abinit.org .

.Starting date : Sun 22 Apr 2018.
- ( at 15h06 )
  
- input  file    -> DOSwithoutGeom.in
- output file    -> DOSwithoutGeom.out
- root for input  files -> DOSwithoutGeom_i
- root for output files -> DOSwithoutGeom_o


 Symmetries : space group P1 (#  1); Bravais aP (primitive triclinic)
================================================================================
 Values of the parameters that define the memory need of the present run
     intxc =       0    ionmov =       0      iscf =       7    lmnmax =       6
     lnmax =       6     mgfft =     180  mpssoang =       3    mqgrid =    8718
     natom =      10  nloc_mem =       1    nspden =       1   nspinor =       1
    nsppol =       1      nsym =       1    n1xccc =    2501    ntypat =       3
    occopt =       1   xclevel =       2
-    mband =          62        mffmem =           1         mkmem =           2
       mpw =       41884          nfft =      737280          nkpt =           2
================================================================================
P This job should need less than                     303.659 Mbytes of memory.
  Rough estimation (10% accuracy) of disk space for files :
_ WF disk file :     79.250 Mbytes ; DEN or POT disk file :      5.627 Mbytes.
================================================================================

--------------------------------------------------------------------------------
------------- Echo of variables that govern the present computation ------------
--------------------------------------------------------------------------------
-
- outvars: echo of selected default values                                      
-   iomode0 =  0 , fftalg0 =112 , wfoptalg0 =  0
-
- outvars: echo of global parameters not present in the input file              
-  max_nthreads =    0
-
 -outvars: echo values of preprocessed input variables --------
            acell      8.6808000000E+00  8.6808000000E+00  2.5000000000E+01 Bohr
              amu      4.78800000E+01  1.59994000E+01  1.06420000E+02
           diemac      1.20000000E+01
             ecut      6.00000000E+01 Hartree
-          fftalg         112
              ixc          11
              kpt      1.25000000E-01  5.00000000E-01  5.00000000E-01
                       3.75000000E-01  5.00000000E-01  5.00000000E-01
           kptopt           2
         kptrlatt        4    0    0      0    1    0      0    0    1
          kptrlen      8.68080000E+00
P           mkmem           2
            natom          10
            nband          62
            ngfft          64      64     180
             nkpt           2
            nstep          10
             nsym           1
           ntypat           3
              occ      2.000000  2.000000  2.000000  2.000000  2.000000  2.000000
                       2.000000  2.000000  2.000000  2.000000  2.000000  2.000000
                       2.000000  2.000000  2.000000  2.000000  2.000000  2.000000
                       2.000000  2.000000  2.000000  2.000000  2.000000  2.000000
                       2.000000  2.000000  2.000000  2.000000  2.000000  2.000000
                       2.000000  2.000000  2.000000  2.000000  2.000000  2.000000
                       2.000000  2.000000  2.000000  2.000000  2.000000  2.000000
                       2.000000  2.000000  2.000000  2.000000  2.000000  2.000000
                       2.000000  2.000000  2.000000  2.000000  2.000000  2.000000
                       2.000000  2.000000  2.000000  2.000000  2.000000  2.000000
                       0.000000  0.000000
           prtdos           2
           shiftk      5.00000000E-01  5.00000000E-01  5.00000000E-01
          spgroup           1
           toldfe      1.00000000E-02 Hartree
            typat      1  1  2  2  2  2  3  3  3  3
              wtk        0.50000    0.50000
           xangst      0.0000000000E+00  0.0000000000E+00  0.0000000000E+00
                       2.2968407562E+00  1.4793678043E+00  2.2968407562E+00
                       3.9876836484E+01  0.0000000000E+00  1.4240158683E+00
                       3.1696656440E+00  0.0000000000E+00  3.1696656440E+00
                       8.7282488785E-01  1.4793678043E+00  3.7208566245E+00
                       3.7208566245E+00  1.4793678043E+00  8.7282488785E-01
                       8.7282488785E-01  0.0000000000E+00  7.5041561596E+00
                       1.9453612542E+00  1.3755961537E+00  8.8797523133E+00
                       1.9453612542E+00 -1.3755961537E+00  8.8797523133E+00
                       0.0000000000E+00  0.0000000000E+00  1.0255295549E+01
            xcart      0.0000000000E+00  0.0000000000E+00  0.0000000000E+00
                       4.3404000000E+00  2.7956000000E+00  4.3404000000E+00
                       7.5356300000E+01  0.0000000000E+00  2.6910000000E+00
                       5.9898000000E+00  0.0000000000E+00  5.9898000000E+00
                       1.6494000000E+00  2.7956000000E+00  7.0314000000E+00
                       7.0314000000E+00  2.7956000000E+00  1.6494000000E+00
                       1.6494000000E+00  0.0000000000E+00  1.4180800000E+01
                       3.6762000000E+00  2.5995000000E+00  1.6780300000E+01
                       3.6762000000E+00 -2.5995000000E+00  1.6780300000E+01
                       0.0000000000E+00  0.0000000000E+00  1.9379700000E+01
             xred      0.0000000000E+00  0.0000000000E+00  0.0000000000E+00
                       5.0000000000E-01  3.2204405124E-01  1.7361600000E-01
                       8.6808013086E+00  0.0000000000E+00  1.0764000000E-01
                       6.9000552944E-01  0.0000000000E+00  2.3959200000E-01
                       1.9000552944E-01  3.2204405124E-01  2.8125600000E-01
                       8.0999447056E-01  3.2204405124E-01  6.5976000000E-02
                       1.9000552944E-01  0.0000000000E+00  5.6723200000E-01
                       4.2348631463E-01  2.9945396738E-01  6.7121200000E-01
                       4.2348631463E-01 -2.9945396738E-01  6.7121200000E-01
                       0.0000000000E+00  0.0000000000E+00  7.7518800000E-01
            znucl       22.00000    8.00000   46.00000

================================================================================

 chkinp: Checking input parameters for consistency.

================================================================================
== DATASET  1 ==================================================================
-   nproc =    1

 Exchange-correlation functional for the present dataset will be:
  GGA: Perdew-Burke-Ernzerhof functional - ixc=11
 Citation for XC functional:
  J.P.Perdew, K.Burke, M.Ernzerhof, PRL 77, 3865 (1996)

 Real(R)+Recip(G) space primitive vectors, cartesian coordinates (Bohr,Bohr^-1):
 R(1)=  8.6808000  0.0000000  0.0000000  G(1)=  0.1151968  0.0000000  0.0000000
 R(2)=  0.0000000  8.6808000  0.0000000  G(2)=  0.0000000  0.1151968  0.0000000
 R(3)=  0.0000000  0.0000000 25.0000000  G(3)=  0.0000000  0.0000000  0.0400000
 Unit cell volume ucvol=  1.8839072E+03 bohr^3
 Angles (23,13,12)=  9.00000000E+01  9.00000000E+01  9.00000000E+01 degrees

 getcut: wavevector=  0.0000  0.0000  0.0000  ngfft=  64  64 180
         ecut(hartree)=     60.000   => boxcut(ratio)=   2.06487

--- Pseudopotential description ------------------------------------------------
- pspini: atom type   1  psp file is ../../../Psps_for_tests/Ti.psp8
- pspatm: opening atomic psp file    ../../../Psps_for_tests/Ti.psp8
- Ti    ONCVPSP-3.2.3.1  r_core=   1.35825   1.31050   1.66360
- 22.00000  12.00000    170504                znucl, zion, pspdat
    8   11    2    4       600   0.00000      pspcod,pspxc,lmax,lloc,mmax,r2well
    5.99000000000000    2.50000000000000    0.00000000000000   rchrg,fchrg,qchrg
     nproj     2     2     2
     extension_switch     1
  pspatm : epsatm=   14.68144390
         --- l  ekb(1:nproj) -->
             0   11.362348    1.263639
             1    1.975402   -0.084666
             2   -5.186090   -1.477451
 pspatm: atomic psp has been read  and splines computed

- pspini: atom type   2  psp file is ../../../Psps_for_tests/O.psp8
- pspatm: opening atomic psp file    ../../../Psps_for_tests/O.psp8
- O     ONCVPSP-3.2.3.1  r_core=   1.35509   1.45563   1.26150
-  8.00000   6.00000    170504                znucl, zion, pspdat
    8   11    2    4       600   0.00000      pspcod,pspxc,lmax,lloc,mmax,r2well
    5.99000000000000    4.00000000000000    0.00000000000000   rchrg,fchrg,qchrg
     nproj     2     2     1
     extension_switch     1
  pspatm : epsatm=    6.19546011
         --- l  ekb(1:nproj) -->
             0    6.056735    0.824024
             1   -4.717130   -1.149271
             2   -1.331955
 pspatm: atomic psp has been read  and splines computed

- pspini: atom type   3  psp file is ../../../Psps_for_tests/Pd.psp8
- pspatm: opening atomic psp file    ../../../Psps_for_tests/Pd.psp8
- Pd    ONCVPSP-3.2.3.1  r_core=   1.41052   1.46191   1.55175
- 46.00000  18.00000    170510                znucl, zion, pspdat
    8   11    2    4       600   0.00000      pspcod,pspxc,lmax,lloc,mmax,r2well
    5.99000000000000    7.00000000000000    0.00000000000000   rchrg,fchrg,qchrg
     nproj     2     2     2
     extension_switch     1
  pspatm : epsatm=   26.09224486
         --- l  ekb(1:nproj) -->
             0    7.845850   -2.282160
             1    3.261104   -0.686948
             2   -1.134855   -0.401224
 pspatm: atomic psp has been read  and splines computed

   1.90216449E+04                                ecore*ucvol(ha*bohr**3)
--------------------------------------------------------------------------------

_setup2: Arith. and geom. avg. npw (full set) are   41854.000   41853.989

================================================================================

     iter   Etot(hartree)      deltaE(h)  residm     vres2
 ETOT  1  -675.62716933720    -6.756E+02 1.696E-01 5.938E+06
 ETOT  2  -501.96437988915     1.737E+02 1.596E-01 3.157E+07
 ETOT  3  -657.24854236076    -1.553E+02 3.373E-01 8.815E+06
 ETOT  4  -715.48160867029    -5.823E+01 1.880E-01 1.009E+06
 ETOT  5  -721.97132574110    -6.490E+00 6.114E-02 3.050E+05
 ETOT  6  -721.05902063445     9.123E-01 8.249E-03 5.104E+05
 ETOT  7  -721.46763145459    -4.086E-01 5.935E-03 4.631E+05
 ETOT  8  -719.70431061389     1.763E+00 1.243E-03 7.596E+05
 ETOT  9  -717.39694239964     2.307E+00 3.686E-03 1.049E+06
 ETOT 10  -687.02003018118     3.038E+01 1.834E-01 4.096E+06

 Cartesian components of stress tensor (hartree/bohr^3)
  sigma(1 1)= -1.34483441E-02  sigma(3 2)=  7.86969095E-04
  sigma(2 2)= -1.52453835E-02  sigma(3 1)=  5.46545285E-04
  sigma(3 3)=  1.25052383E-02  sigma(2 1)=  5.81973887E-04


 scprqt:  WARNING -
  nstep=   10 was not enough SCF cycles to converge;
  maximum energy difference=  3.038E+01 exceeds toldfe=  1.000E-02

 Integrated electronic density in atomic spheres:
 ------------------------------------------------
 Atom  Sphere_radius  Integrated_density
    1        2.00000         13.89244860
    2        2.00000          8.24062751
    3        2.00000          5.12881866
    4        2.00000          2.71070601
    5        2.00000          2.22534589
    6        2.00000          4.01008475
    7        2.00000         15.79545573
    8        2.00000         15.58016609
    9        2.00000         15.62011654
   10        2.00000         15.80887524
================================================================================

 ----iterations are completed or convergence reached----

 Mean square residual over all n,k,spin=   1.2374E-02; max=  1.8344E-01
 reduced coordinates (array xred) for   10 atoms
       0.000000000000      0.000000000000      0.000000000000
       0.500000000000      0.322044051240      0.173616000000
       8.680801308635      0.000000000000      0.107640000000
       0.690005529444      0.000000000000      0.239592000000
       0.190005529444      0.322044051240      0.281256000000
       0.809994470556      0.322044051240      0.065976000000
       0.190005529444      0.000000000000      0.567232000000
       0.423486314625      0.299453967376      0.671212000000
       0.423486314625     -0.299453967376      0.671212000000
       0.000000000000      0.000000000000      0.775188000000
 rms dE/dt=  3.9876E+01; max dE/dt=  9.1088E+01; dE/dt below (all hartree)
    1       9.080535251860     -6.195942382361   -176.105463945523
    2       1.761863914712     -5.082889378910    -18.184159780337
    3      -3.874303352022      6.289998825473     82.505477980501
    4      -2.071796536510      5.219251644336      6.593218382633
    5       2.316762577632     -1.576584175841    -13.719137954266
    6      -6.572574567480      2.492667059678     91.087750540401
    7       1.836033928448      0.014361665553     -2.808437756627
    8      -0.989370632586     14.866616433954     10.032892329132
    9      -1.418093619606    -15.176644846852     10.432281405924
   10       0.391613539333     -0.052402044078      7.339129882798

 cartesian coordinates (angstrom) at end:
    1      0.00000000000000     0.00000000000000     0.00000000000000
    2      2.29684075616404     1.47936780433420     2.29684075616404
    3     39.87683648367062     0.00000000000000     1.42401586831569
    4      3.16966564401238     0.00000000000000     3.16966564401238
    5      0.87282488784835     1.47936780433420     3.72085662447973
    6      3.72085662447973     1.47936780433420     0.87282488784835
    7      0.87282488784835     0.00000000000000     7.50415615957307
    8      1.94536125421856     1.37559615372970     8.87975231330278
    9      1.94536125421856    -1.37559615372970     8.87975231330278
   10      0.00000000000000     0.00000000000000    10.25529554931162

 cartesian forces (hartree/bohr) at end:
    1     -1.04074142953205     0.72295015003872     7.03291276215948
    2     -0.19765423282809     0.59473005471909     0.71606059555202
    3      0.45161395290761    -0.71538977345153    -3.31152491488149
    4      0.24397101498573    -0.59204317162485    -0.27503453096679
    5     -0.26157675873818     0.19081506957152     0.53745972250921
    6      0.76244604389670    -0.27794947235080    -3.65481581727749
    7     -0.20619837780737     0.00754326957682     0.10103171460361
    8      0.11927906217903    -1.70338829990995    -0.41262148882674
    9      0.16866655953186     1.75749794108226    -0.42859705189842
   10     -0.03980583459525     0.01523423234872    -0.30487099097339
 frms,max,avg= 1.6840947E+00 7.0329128E+00  -5.307E-03 -9.198E-03  1.131E-02 h/b

 cartesian forces (eV/Angstrom) at end:
    1    -53.51707155616332    37.17558830011938   361.64688448116794
    2    -10.16378845069698    30.58224645608039    36.82131319393774
    3     23.22292122490556   -36.78681813749577  -170.28544343566205
    4     12.54549294966741   -30.44408138381825   -14.14284303141793
    5    -13.45081661745176     9.81210456553547    27.63728781414389
    6     39.20654864991782   -14.29273533146824  -187.93816991198514
    7    -10.60314601374465     0.38789048485530     5.19525921276566
    8      6.13357547287928   -87.59174079886563   -21.21784827291853
    9      8.67318248266261    90.37417018653645   -22.03934468672195
   10     -2.04689814197599     0.78337565852089   -15.67709536330964
 frms,max,avg= 8.6599624E+01 3.6164688E+02  -2.729E-01 -4.730E-01  5.814E-01 e/A
 length scales=  8.680800000000  8.680800000000 25.000000000000 bohr
              =  4.593681512328  4.593681512328 13.229430214750 angstroms
 prteigrs : about to open file DOSwithoutGeom_o_EIG
 Fermi (or HOMO) energy (hartree) =   0.13790   Average Vxc (hartree)=  -0.29792
 Eigenvalues (hartree) for nkpt=   2  k points:
 kpt#   1, nband= 62, wtk=  0.50000, kpt=  0.1250  0.5000  0.5000 (reduced coord)
  -3.05587   -3.03035   -3.00348   -2.99052   -2.24848   -1.83684   -1.82117   -1.80640
  -1.79750   -1.79482   -1.76873   -1.76038   -1.76011   -1.74382   -1.73723   -1.73242
  -1.72855   -1.70453   -1.38700   -1.37708   -1.35517   -0.97590   -0.95794   -0.93571
  -0.59019   -0.45972   -0.31107   -0.28067   -0.13524   -0.12382   -0.11494   -0.10611
  -0.10523   -0.09321   -0.08936   -0.08234   -0.07932   -0.07662   -0.07570   -0.06959
  -0.05833   -0.05573   -0.04597   -0.04464   -0.04088   -0.03855   -0.03697   -0.02268
  -0.00012    0.00637    0.02608    0.02703    0.04018    0.04139    0.04999    0.07643
   0.07900    0.08999    0.10650    0.13790    0.18771    0.20471
 prteigrs : prtvol=0 or 1, do not print more k-points.


--------------------------------------------------------------------------------
 Components of total free energy (in Hartree) :

    Kinetic energy  =  2.63605949766754E+02
    Hartree energy  =  4.97716553653151E+02
    XC energy       = -1.16590675450517E+02
    Ewald energy    = -2.19877551105853E+02
    PspCore energy  =  1.00969117583759E+01
    Loc. psp. energy= -1.12440256592478E+03
    NL   psp  energy=  2.43134712169287E+00
    >>>>>>>>> Etotal= -6.87020030181180E+02

 Other information on the energy :
    Total energy(eV)= -1.86947657607689E+04 ; Band energy (Ha)=  -9.3496583861E+01
--------------------------------------------------------------------------------

 Cartesian components of stress tensor (hartree/bohr^3)
  sigma(1 1)= -1.34483441E-02  sigma(3 2)=  7.86969095E-04
  sigma(2 2)= -1.52453835E-02  sigma(3 1)=  5.46545285E-04
  sigma(3 3)=  1.25052383E-02  sigma(2 1)=  5.81973887E-04

-Cartesian components of stress tensor (GPa)         [Pressure=  1.5876E+02 GPa]
- sigma(1 1)= -3.95663877E+02  sigma(3 2)=  2.31534262E+01
- sigma(2 2)= -4.48534592E+02  sigma(3 1)=  1.60799147E+01
- sigma(3 3)=  3.67916750E+02  sigma(2 1)=  1.71222600E+01

== END DATASET(S) ==============================================================
================================================================================
  
 -outvars: echo values of variables after computation  --------
            acell      8.6808000000E+00  8.6808000000E+00  2.5000000000E+01 Bohr
              amu      4.78800000E+01  1.59994000E+01  1.06420000E+02
           diemac      1.20000000E+01
             ecut      6.00000000E+01 Hartree
           etotal     -6.8702003018E+02
            fcart     -1.0407414295E+00  7.2295015004E-01  7.0329127622E+00
                      -1.9765423283E-01  5.9473005472E-01  7.1606059555E-01
                       4.5161395291E-01 -7.1538977345E-01 -3.3115249149E+00
                       2.4397101499E-01 -5.9204317162E-01 -2.7503453097E-01
                      -2.6157675874E-01  1.9081506957E-01  5.3745972251E-01
                       7.6244604390E-01 -2.7794947235E-01 -3.6548158173E+00
                      -2.0619837781E-01  7.5432695768E-03  1.0103171460E-01
                       1.1927906218E-01 -1.7033882999E+00 -4.1262148883E-01
                       1.6866655953E-01  1.7574979411E+00 -4.2859705190E-01
                      -3.9805834595E-02  1.5234232349E-02 -3.0487099097E-01
-          fftalg         112
              ixc          11
              kpt      1.25000000E-01  5.00000000E-01  5.00000000E-01
                       3.75000000E-01  5.00000000E-01  5.00000000E-01
           kptopt           2
         kptrlatt        4    0    0      0    1    0      0    0    1
          kptrlen      8.68080000E+00
P           mkmem           2
            natom          10
            nband          62
            ngfft          64      64     180
             nkpt           2
            nstep          10
             nsym           1
           ntypat           3
              occ      2.000000  2.000000  2.000000  2.000000  2.000000  2.000000
                       2.000000  2.000000  2.000000  2.000000  2.000000  2.000000
                       2.000000  2.000000  2.000000  2.000000  2.000000  2.000000
                       2.000000  2.000000  2.000000  2.000000  2.000000  2.000000
                       2.000000  2.000000  2.000000  2.000000  2.000000  2.000000
                       2.000000  2.000000  2.000000  2.000000  2.000000  2.000000
                       2.000000  2.000000  2.000000  2.000000  2.000000  2.000000
                       2.000000  2.000000  2.000000  2.000000  2.000000  2.000000
                       2.000000  2.000000  2.000000  2.000000  2.000000  2.000000
                       2.000000  2.000000  2.000000  2.000000  2.000000  2.000000
                       0.000000  0.000000
           prtdos           2
           shiftk      5.00000000E-01  5.00000000E-01  5.00000000E-01
          spgroup           1
           strten     -1.3448344084E-02 -1.5245383474E-02  1.2505238254E-02
                       7.8696909464E-04  5.4654528508E-04  5.8197388703E-04
           toldfe      1.00000000E-02 Hartree
            typat      1  1  2  2  2  2  3  3  3  3
              wtk        0.50000    0.50000
           xangst      0.0000000000E+00  0.0000000000E+00  0.0000000000E+00
                       2.2968407562E+00  1.4793678043E+00  2.2968407562E+00
                       3.9876836484E+01  0.0000000000E+00  1.4240158683E+00
                       3.1696656440E+00  0.0000000000E+00  3.1696656440E+00
                       8.7282488785E-01  1.4793678043E+00  3.7208566245E+00
                       3.7208566245E+00  1.4793678043E+00  8.7282488785E-01
                       8.7282488785E-01  0.0000000000E+00  7.5041561596E+00
                       1.9453612542E+00  1.3755961537E+00  8.8797523133E+00
                       1.9453612542E+00 -1.3755961537E+00  8.8797523133E+00
                       0.0000000000E+00  0.0000000000E+00  1.0255295549E+01
            xcart      0.0000000000E+00  0.0000000000E+00  0.0000000000E+00
                       4.3404000000E+00  2.7956000000E+00  4.3404000000E+00
                       7.5356300000E+01  0.0000000000E+00  2.6910000000E+00
                       5.9898000000E+00  0.0000000000E+00  5.9898000000E+00
                       1.6494000000E+00  2.7956000000E+00  7.0314000000E+00
                       7.0314000000E+00  2.7956000000E+00  1.6494000000E+00
                       1.6494000000E+00  0.0000000000E+00  1.4180800000E+01
                       3.6762000000E+00  2.5995000000E+00  1.6780300000E+01
                       3.6762000000E+00 -2.5995000000E+00  1.6780300000E+01
                       0.0000000000E+00  0.0000000000E+00  1.9379700000E+01
             xred      0.0000000000E+00  0.0000000000E+00  0.0000000000E+00
                       5.0000000000E-01  3.2204405124E-01  1.7361600000E-01
                       8.6808013086E+00  0.0000000000E+00  1.0764000000E-01
                       6.9000552944E-01  0.0000000000E+00  2.3959200000E-01
                       1.9000552944E-01  3.2204405124E-01  2.8125600000E-01
                       8.0999447056E-01  3.2204405124E-01  6.5976000000E-02
                       1.9000552944E-01  0.0000000000E+00  5.6723200000E-01
                       4.2348631463E-01  2.9945396738E-01  6.7121200000E-01
                       4.2348631463E-01 -2.9945396738E-01  6.7121200000E-01
                       0.0000000000E+00  0.0000000000E+00  7.7518800000E-01
            znucl       22.00000    8.00000   46.00000

================================================================================

- Total cpu        time (s,m,h):        393.0        6.55      0.109
- Total wall clock time (s,m,h):        393.7        6.56      0.109
-
- For major independent code sections, cpu and wall times (sec),
-  as well as % of the time and number of calls for node 0-
-<BEGIN_TIMER mpi_nprocs = 1, omp_nthreads = 1, mpi_rank = 0>
- cpu_time =          393.0, wall_time =          393.7
-
- routine                        cpu     %       wall     %      number of calls  Gflops    Speedup Efficacity
-                                                                  (-1=no count)
- fourwf%(pot)                 109.969  28.0    108.403  27.5           7358      -1.00        1.01       1.01
- nonlop(apply)                106.859  27.2    108.617  27.6           7358      -1.00        0.98       0.98
- projbd                       100.234  25.5    100.853  25.6          11740      -1.00        0.99       0.99
- vtowfk(ssdiag)                18.547   4.7     18.640   4.7             -1      -1.00        1.00       1.00
- fourwf%(den)                  10.156   2.6     10.189   2.6           1200      -1.00        1.00       1.00
- nonlop(forstr)                 5.453   1.4      5.454   1.4            120      -1.00        1.00       1.00
- pspini                         4.859   1.2      4.892   1.2              1      -1.00        0.99       0.99
- xc:pot/=fourdp                 2.453   0.6      2.557   0.6             11      -1.00        0.96       0.96
- fourdp                         2.297   0.6      2.273   0.6            131      -1.00        1.01       1.01
- others (104)                   4.109   1.0      4.393   1.1             -1      -1.00        0.94       0.94
-<END_TIMER>
-
- subtotal                     364.938  92.9    366.271  93.0                                  1.00       1.00

- For major independent code sections, cpu and wall times (sec),
- as well as % of the total time and number of calls 

-<BEGIN_TIMER mpi_nprocs = 1, omp_nthreads = 1, mpi_rank = world>
- cpu_time =         393.0, wall_time =         393.7
-
- routine                         cpu     %       wall     %      number of calls Gflops    Speedup Efficacity
-                                                                  (-1=no count)
- fourwf%(pot)                 109.969  28.0    108.403  27.5           7358      -1.00        1.01       1.01
- nonlop(apply)                106.859  27.2    108.617  27.6           7358      -1.00        0.98       0.98
- projbd                       100.234  25.5    100.853  25.6          11740      -1.00        0.99       0.99
- vtowfk(ssdiag)                18.547   4.7     18.640   4.7             -1      -1.00        1.00       1.00
- fourwf%(den)                  10.156   2.6     10.189   2.6           1200      -1.00        1.00       1.00
- nonlop(forstr)                 5.453   1.4      5.454   1.4            120      -1.00        1.00       1.00
- pspini                         4.859   1.2      4.892   1.2              1      -1.00        0.99       0.99
- xc:pot/=fourdp                 2.453   0.6      2.557   0.6             11      -1.00        0.96       0.96
- fourdp                         2.297   0.6      2.273   0.6            131      -1.00        1.01       1.01
- others (104)                   4.109   1.0      4.393   1.1             -1      -1.00        0.94       0.94
-<END_TIMER>

- subtotal                     364.938  92.9    366.271  93.0                                  1.00       1.00

================================================================================

 Suggested references for the acknowledgment of ABINIT usage.

 The users of ABINIT have little formal obligations with respect to the ABINIT group
 (those specified in the GNU General Public License, http://www.gnu.org/copyleft/gpl.txt).
 However, it is common practice in the scientific literature,
 to acknowledge the efforts of people that have made the research possible.
 In this spirit, please find below suggested citations of work written by ABINIT developers,
 corresponding to implementations inside of ABINIT that you have used in the present run.
 Note also that it will be of great value to readers of publications presenting these results,
 to read papers enabling them to understand the theoretical formalism and details
 of the ABINIT implementation.
 For information on why they are suggested, see also https://www.abinit.org/about/?text=acknowledgments.
-
- [1] Recent developments in the ABINIT software package.
- Computer Phys. Comm. 205, 106 (2016).
- X.Gonze, F.Jollet, F.Abreu Araujo, D.Adams, B.Amadon, T.Applencourt,
- C.Audouze, J.-M.Beuken, J.Bieder, A.Bokhanchuk, E.Bousquet, F.Bruneval
- D.Caliste, M.Cote, F.Dahm, F.Da Pieve, M.Delaveau, M.Di Gennaro,
- B.Dorado, C.Espejo, G.Geneste, L.Genovese, A.Gerossier, M.Giantomassi,
- Y.Gillet, D.R.Hamann, L.He, G.Jomard, J.Laflamme Janssen, S.Le Roux,
- A.Levitt, A.Lherbier, F.Liu, I.Lukacevic, A.Martin, C.Martins,
- M.J.T.Oliveira, S.Ponce, Y.Pouillon, T.Rangel, G.-M.Rignanese,
- A.H.Romero, B.Rousseau, O.Rubel, A.A.Shukri, M.Stankovski, M.Torrent,
- M.J.Van Setten, B.Van Troeye, M.J.Verstraete, D.Waroquier, J.Wiktor,
- B.Xue, A.Zhou, J.W.Zwanziger.
- Comment : the fourth generic paper describing the ABINIT project.
- Note that a version of this paper, that is not formatted for Computer Phys. Comm. 
- is available at https://www.abinit.org/about/ABINIT16.pdf .
- The licence allows the authors to put it on the Web.
-
- [2] Optimized norm-conserving Vanderbilt pseudopotentials.
- D.R. Hamann, Phys. Rev. B 88, 085117 (2013).
- Comment: Some pseudopotential generated using the ONCVPSP code were used.
-
- [3] ABINIT : First-principles approach of materials and nanosystem properties.
- Computer Phys. Comm. 180, 2582-2615 (2009).
- X. Gonze, B. Amadon, P.-M. Anglade, J.-M. Beuken, F. Bottin, P. Boulanger, F. Bruneval,
- D. Caliste, R. Caracas, M. Cote, T. Deutsch, L. Genovese, Ph. Ghosez, M. Giantomassi
- S. Goedecker, D.R. Hamann, P. Hermet, F. Jollet, G. Jomard, S. Leroux, M. Mancini, S. Mazevet,
- M.J.T. Oliveira, G. Onida, Y. Pouillon, T. Rangel, G.-M. Rignanese, D. Sangalli, R. Shaltaf,
- M. Torrent, M.J. Verstraete, G. Zerah, J.W. Zwanziger
- Comment : the third generic paper describing the ABINIT project.
- Note that a version of this paper, that is not formatted for Computer Phys. Comm. 
- is available at https://www.abinit.org/about/ABINIT_CPC_v10.pdf .
- The licence allows the authors to put it on the Web.
-
- [4] A brief introduction to the ABINIT software package.
- Z. Kristallogr. 220, 558-562 (2005).
- X. Gonze, G.-M. Rignanese, M. Verstraete, J.-M. Beuken, Y. Pouillon, R. Caracas, F. Jollet,
- M. Torrent, G. Zerah, M. Mikami, Ph. Ghosez, M. Veithen, J.-Y. Raty, V. Olevano, F. Bruneval,
- L. Reining, R. Godby, G. Onida, D.R. Hamann, and D.C. Allan.
- Comment : the second generic paper describing the ABINIT project. Note that this paper
- should be cited especially if you are using the GW part of ABINIT, as several authors
- of this part are not in the list of authors of the first or third paper.
- The .pdf of the latter paper is available at https://www.abinit.org/about/zfk_0505-06_558-562.pdf.
- Note that it should not redistributed (Copyright by Oldenburg Wissenshaftverlag,
- the licence allows the authors to put it on the Web).
-
- And optionally:
-
- [5] First-principles computation of material properties : the ABINIT software project. 
- X. Gonze, J.-M. Beuken, R. Caracas, F. Detraux, M. Fuchs, G.-M. Rignanese, L. Sindic,
- M. Verstraete, G. Zerah, F. Jollet, M. Torrent, A. Roy, M. Mikami, Ph. Ghosez, J.-Y. Raty, D.C. Allan.
- Computational Materials Science 25, 478-492 (2002). http://dx.doi.org/10.1016/S0927-0256(02)00325-7
- Comment : the original paper describing the ABINIT project.
-
- Proc.   0 individual time (sec): cpu=        393.0  wall=        393.7

================================================================================

 Calculation completed.
.Delivered   1 WARNINGs and   2 COMMENTs to log file.
+Overall time at end (sec) : cpu=        393.0  wall=        393.7
