  ABINIT 8.6.3
  
  Give name for formatted input file: 
RutileGeom2.in
  Give name for formatted output file:
RutileGeom2.out
  Give root name for generic input files:
RutileGeom2_i
  Give root name for generic output files:
RutileGeom2_o
  Give root name for generic temporary files:
RutileGeom2

--- !COMMENT
src_file: isfile.F90
src_line: 109
message: |
    Output file RutileGeom2.out
     already exists.
...


--- !COMMENT
src_file: isfile.F90
src_line: 133
message: |
    Renaming old RutileGeom2.out to RutileGeom2.out0001
...


.Version 8.6.3 of ABINIT 
.(sequential version, prepared for a x86_64_linux_gnu5.4 computer) 

.Copyright (C) 1998-2017 ABINIT group . 
 ABINIT comes with ABSOLUTELY NO WARRANTY.
 It is free software, and you are welcome to redistribute it
 under certain conditions (GNU General Public License,
 see ~abinit/COPYING or http://www.gnu.org/copyleft/gpl.txt).

 ABINIT is a project of the Universite Catholique de Louvain,
 Corning Inc. and other collaborators, see ~abinit/doc/developers/contributors.txt .
 Please read ~abinit/doc/users/acknowledgments.html for suggested
 acknowledgments of the ABINIT effort.
 For more information, see https://www.abinit.org .

.Starting date : Fri 27 Apr 2018.
- ( at 11h07 )
  

 ++++++++++++++++++++++++++++++++++++++++++++++++++++++++++++++++++++++++++++++

 === Build Information === 
  Version       : 8.6.3
  Build target  : x86_64_linux_gnu5.4
  Build date    : 20180412

 === Compiler Suite === 
  C compiler       : gnu5.4
  C++ compiler     : gnu5.4
  Fortran compiler : gnu5.4
  CFLAGS           :  -g -O2 -mtune=native -march=native
  CXXFLAGS         :  -g -O2 -mtune=native -march=native
  FCFLAGS          :  -g -ffree-line-length-none
  FC_LDFLAGS       : 

 === Optimizations === 
  Debug level        : basic
  Optimization level : standard
  Architecture       : unknown_unknown

 === Multicore === 
  Parallel build : no
  Parallel I/O   : no
  openMP support : no
  GPU support    : no

 === Connectors / Fallbacks === 
  Connectors on : yes
  Fallbacks on  : yes
  DFT flavor    : none
  FFT flavor    : none
  LINALG flavor : netlib-fallback
  MATH flavor   : none
  TIMER flavor  : abinit
  TRIO flavor   : none

 === Experimental features === 
  Bindings            : @enable_bindings@
  Exports             : no
  GW double-precision : no

 ++++++++++++++++++++++++++++++++++++++++++++++++++++++++++++++++++++++++++++++


 ++++++++++++++++++++++++++++++++++++++++++++++++++++++++++++++++++++++++++++++
 Default optimizations:
   -O2 -mtune=native -march=native


 Optimizations for 20_datashare:
   -O0


 ++++++++++++++++++++++++++++++++++++++++++++++++++++++++++++++++++++++++++++++


 ++++++++++++++++++++++++++++++++++++++++++++++++++++++++++++++++++++++++++++++
 CPP options activated during the build:

                    CC_GNU                   CXX_GNU                    FC_GNU
 
 HAVE_FC_ALLOCATABLE_DT...             HAVE_FC_ASYNC         HAVE_FC_BACKTRACE
 
  HAVE_FC_COMMAND_ARGUMENT      HAVE_FC_COMMAND_LINE        HAVE_FC_CONTIGUOUS
 
           HAVE_FC_CPUTIME              HAVE_FC_EXIT             HAVE_FC_FLUSH
 
             HAVE_FC_GAMMA            HAVE_FC_GETENV   HAVE_FC_IEEE_EXCEPTIONS
 
          HAVE_FC_INT_QUAD             HAVE_FC_IOMSG     HAVE_FC_ISO_C_BINDING
 
  HAVE_FC_ISO_FORTRAN_2008        HAVE_FC_LONG_LINES        HAVE_FC_MOVE_ALLOC
 
           HAVE_FC_PRIVATE         HAVE_FC_PROTECTED         HAVE_FC_STREAM_IO
 
            HAVE_FC_SYSTEM          HAVE_FORTRAN2003        HAVE_LIBPAW_ABINIT
 
      HAVE_LIBTETRA_ABINIT             HAVE_OS_LINUX         HAVE_TIMER_ABINIT
 
              USE_MACROAVE                                                      
 ++++++++++++++++++++++++++++++++++++++++++++++++++++++++++++++++++++++++++++++

- input  file    -> RutileGeom2.in
- output file    -> RutileGeom2.out
- root for input  files -> RutileGeom2_i
- root for output files -> RutileGeom2_o

-instrng: 94 lines of input have been read from file RutileGeom2.in


 Please give name of formatted atomic psp file
 iofn2 : for atom type 1, psp file is ../../../Psps_for_tests/22ti.pspnc

 Please give name of formatted atomic psp file
 iofn2 : for atom type 2, psp file is ../../../Psps_for_tests/8o.pspnc
  read the values zionpsp=  4.0 , pspcod=   1 , lmax=   2
  read the values zionpsp=  6.0 , pspcod=   1 , lmax=   1

 inpspheads: deduce mpsang = 3, n1xccc = 2501.
 invars1 : treat image number: 1

 symlatt : the Bravais lattice is tP (primitive tetragonal)
  xcart  is defined in input file
 ingeo : takes atomic coordinates from input array xcart
 symfind : exit, nsym=8
   symrel matrices, symafm and tnons are :
   1       1   0   0     0   1   0     0   0   1       1      0.0000  0.0000  0.0000
   2       1   0   0     0  -1   0     0   0  -1       1      0.5000 -0.5000  0.5000
   3      -1   0   0     0   1   0     0   0  -1       1      0.0000  0.0000  0.0000
   4      -1   0   0     0  -1   0     0   0   1       1      0.5000 -0.5000  0.5000
   5       0   0   1     0   1   0     1   0   0       1      0.0000  0.0000  0.0000
   6       0   0   1     0  -1   0    -1   0   0       1      0.5000 -0.5000  0.5000
   7       0   0  -1     0   1   0    -1   0   0       1      0.0000  0.0000  0.0000
   8       0   0  -1     0  -1   0     1   0   0       1      0.5000 -0.5000  0.5000

 symlatt : the Bravais lattice is tP (primitive tetragonal)

 symlatt : the Bravais lattice is tP (primitive tetragonal)
 symspgr : spgroup= 113  P-4 2_1 m   (=D2d^3)
 symspgr : optical characteristics = uniaxial
 Optical axis (in reduced coordinates, real space ) :   0   1   0
 ingeo : angdeg(1:3)=   90.00000000   90.00000000   90.00000000
 invars2: take the default value of fband=  1.25000000E-01
 chkneu : initialized the occupation numbers for occopt=    1, spin-unpolarized or antiferromagnetic case :
  2.00  2.00  2.00  2.00  2.00  2.00  2.00  2.00  2.00  2.00  2.00  2.00
  2.00  2.00  2.00  2.00  0.00
mpi_setup: mkmem  undefined in the input file.Use default mkmem  = nkpt
 mpi_setup: With nkpt_me=8 and mkmem  = 8, ground state wf handled in core.
mpi_setup: mkqmem undefined in the input file.Use default mkqmem = nkpt
 mpi_setup: With nkpt_me=8 and mkqmem = 8, ground state wf handled in core.
mpi_setup: mk1mem undefined in the input file.Use default mk1mem = nkpt
 mpi_setup: With nkpt_me=8 and mk1mem = 8, ground state wf handled in core.
 For input ecut=  2.880000E+01 best grid ngfft=      45      30      45
       max ecut=  3.169535E+01

 ==== FFT mesh ====
  FFT mesh divisions ........................    45   30   45
  Augmented FFT divisions ...................    45   31   45
  FFT algorithm .............................   112
  FFT cache size ............................    16
 getmpw: optimal value of mpw= 3122

 Symmetries : space group P-4 2_1 m (#113); Bravais tP (primitive tetrag.)

 getdim_nloc : deduce lmnmax  =   8, lnmax  =   2,
                      lmnmaxso=   8, lnmaxso=   2.
memory : analysis of memory needs
================================================================================
 Values of the parameters that define the memory need of the present run
     intxc =       0    ionmov =       2      iscf =       7    lmnmax =       2
     lnmax =       2     mgfft =      45  mpssoang =       3    mqgrid =    3001
     natom =       6  nloc_mem =       1    nspden =       1   nspinor =       1
    nsppol =       1      nsym =       8    n1xccc =    2501    ntypat =       2
    occopt =       1   xclevel =       2
-    mband =          17        mffmem =           1         mkmem =           8
       mpw =        3122          nfft =       60750          nkpt =           8
================================================================================
P This job should need less than                      27.103 Mbytes of memory.
  Rough estimation (10% accuracy) of disk space for files :
_ WF disk file :      6.481 Mbytes ; DEN or POT disk file :      0.465 Mbytes.
================================================================================

 Biggest array : f_fftgr(disk), with      7.4178 MBytes.
 memana : allocated an array of      7.418 Mbytes, for testing purposes.
 memana: allocated      27.103Mbytes, for testing purposes. 
 The job will continue.
--------------------------------------------------------------------------------
------------- Echo of variables that govern the present computation ------------
--------------------------------------------------------------------------------
-
- outvars: echo of selected default values                                      
-   iomode0 =  0 , fftalg0 =112 , wfoptalg0 =  0
-
- outvars: echo of global parameters not present in the input file              
-  max_nthreads =    0
-
 -outvars: echo values of preprocessed input variables --------
            acell      8.6808000000E+00  5.5911000000E+00  8.6808000000E+00 Bohr
              amu      4.78800000E+01  1.59994000E+01
           diemac      1.20000000E+01
          dilatmx      1.20000000E+00
             ecut      2.00000000E+01 Hartree
           ecutsm      5.00000000E-01 Hartree
-          fftalg         112
           getwfk          -1
           ionmov           2
              ixc          11
              kpt     -2.50000000E-01  5.00000000E-01  0.00000000E+00
                       5.00000000E-01 -2.50000000E-01  0.00000000E+00
                      -2.50000000E-01 -2.50000000E-01  2.50000000E-01
                      -2.50000000E-01  0.00000000E+00  0.00000000E+00
                       5.00000000E-01  5.00000000E-01  2.50000000E-01
                       0.00000000E+00 -2.50000000E-01  0.00000000E+00
                       5.00000000E-01 -2.50000000E-01  5.00000000E-01
                       5.00000000E-01  0.00000000E+00  2.50000000E-01
         kptrlatt        2   -2    2      0    4    0     -2   -2    2
          kptrlen      2.23644000E+01
P           mkmem           8
            natom           6
            nband          17
            ngfft          45      30      45
             nkpt           8
            nstep          20
             nsym           8
            ntime          20
           ntypat           2
              occ      2.000000  2.000000  2.000000  2.000000  2.000000  2.000000
                       2.000000  2.000000  2.000000  2.000000  2.000000  2.000000
                       2.000000  2.000000  2.000000  2.000000  0.000000
          optcell           1
           shiftk      5.00000000E-01  0.00000000E+00  5.00000000E-01
          spgroup         113
           symrel      1  0  0   0  1  0   0  0  1       1  0  0   0 -1  0   0  0 -1
                      -1  0  0   0  1  0   0  0 -1      -1  0  0   0 -1  0   0  0  1
                       0  0  1   0  1  0   1  0  0       0  0  1   0 -1  0  -1  0  0
                       0  0 -1   0  1  0  -1  0  0       0  0 -1   0 -1  0   1  0  0
            tnons      0.0000000  0.0000000  0.0000000     0.5000000 -0.4999911  0.5000000
                       0.0000000  0.0000000  0.0000000     0.5000000 -0.4999911  0.5000000
                       0.0000000  0.0000000  0.0000000     0.5000000 -0.4999911  0.5000000
                       0.0000000  0.0000000  0.0000000     0.5000000 -0.4999911  0.5000000
           toldfe      1.00000000E-04 Hartree
            typat      1  1  2  2  2  2
              wtk        0.12500    0.12500    0.25000    0.12500    0.12500    0.06250
                         0.06250    0.12500
           xangst      0.0000000000E+00  0.0000000000E+00  0.0000000000E+00
                       2.2968407562E+00  1.4793678043E+00  2.2968407562E+00
                       3.1696656440E+00  0.0000000000E+00  1.4240158683E+00
                       1.4240158683E+00  0.0000000000E+00  3.1696656440E+00
                       8.7282488785E-01  1.4793678043E+00  8.7282488785E-01
                       3.7208566245E+00  1.4793678043E+00  3.7208566245E+00
            xcart      0.0000000000E+00  0.0000000000E+00  0.0000000000E+00
                       4.3404000000E+00  2.7956000000E+00  4.3404000000E+00
                       5.9898000000E+00  0.0000000000E+00  2.6910000000E+00
                       2.6910000000E+00  0.0000000000E+00  5.9898000000E+00
                       1.6494000000E+00  2.7956000000E+00  1.6494000000E+00
                       7.0314000000E+00  2.7956000000E+00  7.0314000000E+00
             xred      0.0000000000E+00  0.0000000000E+00  0.0000000000E+00
                       5.0000000000E-01  5.0000894278E-01  5.0000000000E-01
                       6.9000552944E-01  0.0000000000E+00  3.0999447056E-01
                       3.0999447056E-01  0.0000000000E+00  6.9000552944E-01
                       1.9000552944E-01  5.0000894278E-01  1.9000552944E-01
                       8.0999447056E-01  5.0000894278E-01  8.0999447056E-01
            znucl       22.00000    8.00000

================================================================================

 chkinp: Checking input parameters for consistency.

 chkinp: WARNING -
   Chksymbreak=1 . Found potentially symmetry-breaking value of tnons, 
   which is neither a rational fraction in 1/8th nor in 1/12th :
   for the symmetry number    2
   symrel is   1  0  0  0 -1  0  0  0 -1
   tnons is     5.000000E-01   -4.999911E-01    5.000000E-01
   Please, read the description of the input variable chksymbreak,
   then, if you feel confident, you might switch it to zero, or consult with the forum.

 chkinp: WARNING -
   Chksymbreak=1 . Found potentially symmetry-breaking value of tnons, 
   which is neither a rational fraction in 1/8th nor in 1/12th :
   for the symmetry number    4
   symrel is  -1  0  0  0 -1  0  0  0  1
   tnons is     5.000000E-01   -4.999911E-01    5.000000E-01
   Please, read the description of the input variable chksymbreak,
   then, if you feel confident, you might switch it to zero, or consult with the forum.

 chkinp: WARNING -
   Chksymbreak=1 . Found potentially symmetry-breaking value of tnons, 
   which is neither a rational fraction in 1/8th nor in 1/12th :
   for the symmetry number    6
   symrel is   0  0  1  0 -1  0 -1  0  0
   tnons is     5.000000E-01   -4.999911E-01    5.000000E-01
   Please, read the description of the input variable chksymbreak,
   then, if you feel confident, you might switch it to zero, or consult with the forum.

 chkinp: WARNING -
   Chksymbreak=1 . Found potentially symmetry-breaking value of tnons, 
   which is neither a rational fraction in 1/8th nor in 1/12th :
   for the symmetry number    8
   symrel is   0  0 -1  0 -1  0  1  0  0
   tnons is     5.000000E-01   -4.999911E-01    5.000000E-01
   Please, read the description of the input variable chksymbreak,
   then, if you feel confident, you might switch it to zero, or consult with the forum.
 DATA TYPE INFORMATION: 
 REAL:      Data type name: REAL(DP) 
            Kind value:      8
            Precision:      15
            Smallest nonnegligible quantity relative to 1:  0.22204460E-15
            Smallest positive number:                       0.22250739-307
            Largest representable number:                   0.17976931+309
 INTEGER:   Data type name: INTEGER(default) 
            Kind value: 4
            Bit size:   32
            Largest representable number: 2147483647
 LOGICAL:   Data type name: LOGICAL 
            Kind value: 4
 CHARACTER: Data type name: CHARACTER             Kind value: 1

  ==== OpenMP parallelism is OFF ====
 
  MPI-IO support is OFF

================================================================================
== DATASET  1 ==================================================================
-   nproc =    1


 getdim_nloc : deduce lmnmax  =   8, lnmax  =   2,
                      lmnmaxso=   8, lnmaxso=   2.
 Exchange-correlation functional for the present dataset will be:
  GGA: Perdew-Burke-Ernzerhof functional - ixc=11
 Citation for XC functional:
  J.P.Perdew, K.Burke, M.Ernzerhof, PRL 77, 3865 (1996)

 Unit cell volume ucvol=  4.2132455E+02 bohr^3
 Angles (23,13,12)=  9.00000000E+01  9.00000000E+01  9.00000000E+01 degrees

 getcut: wavevector=  0.0000  0.0000  0.0000  ngfft=  45  30  45
         ecut(hartree)=     28.800   => boxcut(ratio)=   2.09813
- pspini: atom type   1  psp file is ../../../Psps_for_tests/22ti.pspnc
- pspatm: opening atomic psp file    ../../../Psps_for_tests/22ti.pspnc
-  Troullier-Martins psp for element  Ti        Thu Oct 27 17:33:40 EDT 1994
- 22.00000   4.00000    940714                znucl, zion, pspdat
    1    1    2    0      2001   0.00000      pspcod,pspxc,lmax,lloc,mmax,r2well

--- !WARNING
src_file: pspatm.F90
src_line: 402
message: |
    Pseudopotential file pspxc= 1,
    not equal to input ixc= 11.
    These parameters must agree to get the same xc 
    in ABINIT code as in psp construction.
    Action: check psp design or input file.
    Assume experienced user. Execution will continue.
...

    0   5.166   8.509    0   2.4203472        l,e99.0,e99.9,nproj,rcpsp
   0.00000000   0.00000000   0.00000000   0.00000000     rms, ekb1, ekb2, epsatm
    1   2.285   3.944    1   2.9934301        l,e99.0,e99.9,nproj,rcpsp
   0.00000000   0.00000000   0.00000000   0.00000000     rms, ekb1, ekb2, epsatm
    2  20.947  27.069    1   1.9326638        l,e99.0,e99.9,nproj,rcpsp
   0.00000000   0.00000000   0.00000000   0.00000000     rms, ekb1, ekb2, epsatm
    2.82741504495369    0.09256629068341    1.82586447305099   rchrg,fchrg,qchrg
  pspatm : epsatm=   66.67453488
         --- l  ekb(1:nproj) -->
             1    0.915537
             2   -8.015692
 pspatm: atomic psp has been read  and splines computed

- pspini: atom type   2  psp file is ../../../Psps_for_tests/8o.pspnc
- pspatm: opening atomic psp file    ../../../Psps_for_tests/8o.pspnc
-  Troullier-Martins psp for element  O         Thu Oct 27 17:29:57 EDT 1994
-  8.00000   6.00000    940714                znucl, zion, pspdat
    1    1    1    1      2001   0.00000      pspcod,pspxc,lmax,lloc,mmax,r2well

--- !WARNING
src_file: pspatm.F90
src_line: 402
message: |
    Pseudopotential file pspxc= 1,
    not equal to input ixc= 11.
    These parameters must agree to get the same xc 
    in ABINIT code as in psp construction.
    Action: check psp design or input file.
    Assume experienced user. Execution will continue.
...

    0   5.480  16.893    1   1.4482335        l,e99.0,e99.9,nproj,rcpsp
   0.00000000   0.00000000   0.00000000   0.00000000     rms, ekb1, ekb2, epsatm
    1  20.911  28.075    0   1.4482335        l,e99.0,e99.9,nproj,rcpsp
   0.00000000   0.00000000   0.00000000   0.00000000     rms, ekb1, ekb2, epsatm
    0.56990156784787    3.95561236318184    0.63894027514378   rchrg,fchrg,qchrg
  pspatm : epsatm=    1.57752239
         --- l  ekb(1:nproj) -->
             0    5.670783
 pspatm: atomic psp has been read  and splines computed

   4.46909310E+03                                ecore*ucvol(ha*bohr**3)
 ==== Info on pseudopotentials ====
  Norm-conserving pseudopotentials
  Number of pseudopotentials ..    2
  Number of types of atoms   ..    2
  Scalar calculation (no spin-orbit term)
  Nonlocal part applied using Legendre polynomials
  Max number of non-local projectors over l and type   1
  Highest angular momentum +1 .......   3
  Max number of (l,n)   components ..   2
  Max number of (l,m,n) components ..   2

 Pseudo-Core Charge Info: 
   Number of radial points for pseudo-core charge .. 2501
   XC core-correction treatment (optnlxccc) ........    1
   Radius for pseudo-core charge for each type ..... 

  - Atom type    1 has pseudo-core radius ..  8.4822
  - Atom type    2 has pseudo-core radius ..  1.7097

 Info on the Q-grid used for form factors in spline form: 
   Number of q-points for radial functions ffspl ..   3001
   Number of q-points for vlspl ...................   3001
   vloc is computed in Reciprocal Space
   model core charge treated in real-space

  XC functional for type 1 is 1
  Pseudo valence available: no
  XC functional for type 2 is 1
  Pseudo valence available: no

 wfconv:    17 bands initialized randomly with npw=  3104, for ikpt=     1
 wfconv:    17 bands initialized randomly with npw=  3106, for ikpt=     2
 wfconv:    17 bands initialized randomly with npw=  3104, for ikpt=     3
 wfconv:    17 bands initialized randomly with npw=  3113, for ikpt=     4
 wfconv:    17 bands initialized randomly with npw=  3120, for ikpt=     5
 wfconv:    17 bands initialized randomly with npw=  3122, for ikpt=     6
 wfconv:    17 bands initialized randomly with npw=  3076, for ikpt=     7
 wfconv:    17 bands initialized randomly with npw=  3102, for ikpt=     8
_setup2: Arith. and geom. avg. npw (full set) are    3106.500    3106.483
 initro: for itypat=  1, take decay length=      1.2000,
 initro: indeed, coreel=     18.0000, nval=  4 and densty=  0.0000E+00.
 initro: for itypat=  2, take decay length=      0.5000,
 initro: indeed, coreel=      2.0000, nval=  6 and densty=  0.0000E+00.

================================================================================

=== [ionmov= 2] Broyden-Fletcher-Goldfard-Shanno method (forces)            
================================================================================

--- Iteration: ( 1/20) Internal Cycle: (1/1)
--------------------------------------------------------------------------------

 Cartesian coordinates (xcart) [bohr]
  0.00000000000000E+00  0.00000000000000E+00  0.00000000000000E+00
  4.34040000000000E+00  2.79560000000000E+00  4.34040000000000E+00
  5.98980000000000E+00  0.00000000000000E+00  2.69100000000000E+00
  2.69100000000000E+00  0.00000000000000E+00  5.98980000000000E+00
  1.64940000000000E+00  2.79560000000000E+00  1.64940000000000E+00
  7.03140000000000E+00  2.79560000000000E+00  7.03140000000000E+00
 Reduced coordinates (xred)
  0.00000000000000E+00  0.00000000000000E+00  0.00000000000000E+00
  5.00000000000000E-01  5.00008942784067E-01  5.00000000000000E-01
  6.90005529444291E-01  0.00000000000000E+00  3.09994470555709E-01
  3.09994470555709E-01  0.00000000000000E+00  6.90005529444291E-01
  1.90005529444291E-01  5.00008942784067E-01  1.90005529444291E-01
  8.09994470555709E-01  5.00008942784067E-01  8.09994470555709E-01
 Scale of Primitive Cell (acell) [bohr]
  8.68080000000000E+00  5.59110000000000E+00  8.68080000000000E+00
 Real space primitive translations (rprimd) [bohr]
  8.68080000000000E+00  0.00000000000000E+00  0.00000000000000E+00
  0.00000000000000E+00  5.59110000000000E+00  0.00000000000000E+00
  0.00000000000000E+00  0.00000000000000E+00  8.68080000000000E+00
 Unitary Cell Volume (ucvol) [Bohr^3]=  4.21324545415104E+02
 Angles (23,13,12)= [degrees]
  9.00000000000000E+01  9.00000000000000E+01  9.00000000000000E+01
 Lengths [Bohr]
  8.68080000000000E+00  5.59110000000000E+00  8.68080000000000E+00

---SELF-CONSISTENT-FIELD CONVERGENCE--------------------------------------------

 getcut: wavevector=  0.0000  0.0000  0.0000  ngfft=  45  30  45
         ecut(hartree)=     20.000   => boxcut(ratio)=   2.51775

 getcut : COMMENT -
  Note that boxcut > 2.2 ; recall that boxcut=Gcut(box)/Gcut(sphere) = 2
  is sufficient for exact treatment of convolution.
  Such a large boxcut is a waste : you could raise ecut
  e.g. ecut=   31.695354 Hartrees makes boxcut=2


 ITER STEP NUMBER     1
 vtorho : nnsclo_now=2, note that nnsclo,dbl_nnsclo,istep=0 0 1
 non-scf iterations; kpt #     1  , k= ( -0.25000  0.50000  0.00000  ), band residuals:
 res:  1.27E+00  5.02E-01  4.17E-01  3.60E-01  3.17E-01  3.46E-01  3.41E-01  2.97E-01
 res:  3.53E-01  3.36E-01  2.91E-01  3.18E-01  3.00E-01  2.68E-01  3.19E-01  2.51E-01
 res:  2.57E-01
 ene: -6.13E-01 -5.81E-01 -5.41E-01 -5.09E-01 -2.02E-01 -1.77E-01 -1.65E-01 -1.57E-01
 ene: -1.29E-01 -1.14E-01 -1.07E-01 -7.00E-02 -5.02E-02  1.01E-02  6.87E-02  1.63E-01
 ene:  3.64E-01
 res:  8.25E-03  1.51E-02  1.14E-02  2.47E-02  6.90E-03  6.42E-03  7.93E-03  7.42E-03
 res:  8.43E-03  1.06E-02  7.93E-03  1.05E-02  9.84E-03  1.99E-02  2.81E-02  4.60E-02
 res:  1.00E-01
 ene: -7.13E-01 -7.13E-01 -7.06E-01 -7.02E-01 -2.59E-01 -2.58E-01 -2.31E-01 -2.23E-01
 ene: -2.03E-01 -1.98E-01 -1.79E-01 -1.78E-01 -1.46E-01 -1.40E-01 -1.36E-01 -1.25E-01
 ene: -1.21E-02
 vtowfk : number of one-way 3D ffts skipped in vtowfk until now =1
     eigenvalues (hartree) for   17  bands
              after    3 non-SCF iterations with    4 CG line minimizations
 -7.1335E-01 -7.1270E-01 -7.0644E-01 -7.0225E-01 -2.5946E-01 -2.5776E-01
 -2.3089E-01 -2.2316E-01 -2.0326E-01 -1.9808E-01 -1.7942E-01 -1.7770E-01
 -1.4612E-01 -1.3991E-01 -1.3640E-01 -1.2539E-01 -1.2058E-02
 non-scf iterations; kpt #     2  , k= (  0.50000 -0.25000  0.00000  ), band residuals:
 res:  1.25E+00  4.13E-01  4.69E-01  4.63E-01  3.81E-01  3.06E-01  2.90E-01  3.62E-01
 res:  2.63E-01  3.01E-01  2.71E-01  2.93E-01  3.16E-01  3.00E-01  2.58E-01  2.77E-01
 res:  2.72E-01
 ene: -6.26E-01 -5.97E-01 -5.47E-01 -4.95E-01 -2.00E-01 -1.72E-01 -1.61E-01 -1.43E-01
 ene: -1.34E-01 -1.17E-01 -1.03E-01 -7.80E-02 -3.94E-02  2.12E-02  5.12E-02  1.34E-01
 ene:  4.04E-01
 res:  7.10E-03  1.11E-02  1.55E-02  2.11E-02  6.18E-03  8.70E-03  7.83E-03  8.08E-03
 res:  1.05E-02  1.36E-02  1.10E-02  1.13E-02  1.37E-02  1.99E-02  2.35E-02  4.54E-02
 res:  1.18E-01
 ene: -7.28E-01 -7.25E-01 -7.02E-01 -6.99E-01 -2.52E-01 -2.49E-01 -2.35E-01 -2.31E-01
 ene: -2.16E-01 -2.13E-01 -1.79E-01 -1.73E-01 -1.48E-01 -1.40E-01 -1.07E-01 -9.85E-02
 ene:  1.63E-02
 vtowfk : number of one-way 3D ffts skipped in vtowfk until now =2
     eigenvalues (hartree) for   17  bands
              after    3 non-SCF iterations with    4 CG line minimizations
 -7.2799E-01 -7.2513E-01 -7.0215E-01 -6.9898E-01 -2.5157E-01 -2.4910E-01
 -2.3472E-01 -2.3139E-01 -2.1629E-01 -2.1287E-01 -1.7921E-01 -1.7325E-01
 -1.4766E-01 -1.3988E-01 -1.0720E-01 -9.8528E-02  1.6251E-02
 non-scf iterations; kpt #     3  , k= ( -0.25000 -0.25000  0.25000  ), band residuals:
 res:  1.15E+00  4.73E-01  3.92E-01  4.55E-01  3.22E-01  3.12E-01  3.82E-01  3.19E-01
 res:  3.26E-01  3.51E-01  2.32E-01  2.85E-01  3.28E-01  2.94E-01  2.94E-01  2.40E-01
 res:  3.15E-01
 ene: -6.48E-01 -6.12E-01 -5.79E-01 -5.30E-01 -2.02E-01 -1.86E-01 -1.67E-01 -1.53E-01
 ene: -1.26E-01 -1.20E-01 -8.26E-02 -4.38E-02 -3.52E-02  7.18E-02  1.26E-01  2.77E-01
 ene:  3.91E-01
 res:  8.21E-03  1.18E-02  1.03E-02  1.60E-02  7.48E-03  1.01E-02  7.44E-03  7.06E-03
 res:  1.06E-02  1.42E-02  7.03E-03  1.29E-02  1.86E-02  2.81E-02  3.36E-02  1.03E-01
 res:  7.91E-02
 ene: -7.37E-01 -7.15E-01 -7.02E-01 -7.00E-01 -2.64E-01 -2.50E-01 -2.44E-01 -2.34E-01
 ene: -2.14E-01 -1.92E-01 -1.86E-01 -1.51E-01 -1.42E-01 -1.30E-01 -1.13E-01 -7.28E-02
 ene: -1.04E-02
 vtowfk : number of one-way 3D ffts skipped in vtowfk until now =3
     eigenvalues (hartree) for   17  bands
              after    3 non-SCF iterations with    4 CG line minimizations
 -7.3703E-01 -7.1486E-01 -7.0237E-01 -7.0018E-01 -2.6403E-01 -2.5003E-01
 -2.4439E-01 -2.3360E-01 -2.1362E-01 -1.9213E-01 -1.8611E-01 -1.5078E-01
 -1.4188E-01 -1.2975E-01 -1.1279E-01 -7.2839E-02 -1.0366E-02
 non-scf iterations; kpt #     4  , k= ( -0.25000  0.00000  0.00000  ), band residuals:
 res:  1.27E+00  4.37E-01  4.58E-01  4.53E-01  3.14E-01  3.50E-01  3.93E-01  2.92E-01
 res:  3.17E-01  3.22E-01  2.73E-01  2.77E-01  3.01E-01  2.89E-01  2.82E-01  2.76E-01
 res:  2.00E-01
 ene: -5.99E-01 -5.88E-01 -5.50E-01 -5.37E-01 -2.07E-01 -1.86E-01 -1.73E-01 -1.70E-01
 ene: -1.31E-01 -1.10E-01 -7.26E-02 -3.90E-02  2.10E-02  6.97E-02  1.58E-01  2.77E-01
 ene:  4.63E-01
 res:  1.47E-02  1.12E-02  1.38E-02  1.44E-02  8.01E-03  9.27E-03  9.81E-03  1.11E-02
 res:  1.09E-02  8.52E-03  1.47E-02  1.10E-02  1.40E-02  2.44E-02  5.25E-02  8.01E-02
 res:  1.43E-01
 ene: -7.53E-01 -7.22E-01 -6.97E-01 -6.93E-01 -2.88E-01 -2.73E-01 -2.39E-01 -2.30E-01
 ene: -2.21E-01 -1.83E-01 -1.74E-01 -1.36E-01 -1.16E-01 -1.05E-01 -9.00E-02 -5.86E-02
 ene:  1.23E-01
 vtowfk : number of one-way 3D ffts skipped in vtowfk until now =4
     eigenvalues (hartree) for   17  bands
              after    3 non-SCF iterations with    4 CG line minimizations
 -7.5333E-01 -7.2167E-01 -6.9729E-01 -6.9350E-01 -2.8836E-01 -2.7331E-01
 -2.3944E-01 -2.2958E-01 -2.2052E-01 -1.8322E-01 -1.7430E-01 -1.3557E-01
 -1.1584E-01 -1.0513E-01 -9.0032E-02 -5.8568E-02  1.2338E-01
 non-scf iterations; kpt #     5  , k= (  0.50000  0.50000  0.25000  ), band residuals:
 res:  9.39E-01  4.34E-01  4.13E-01  4.54E-01  3.61E-01  3.69E-01  3.37E-01  3.40E-01
 res:  3.31E-01  3.24E-01  2.93E-01  3.27E-01  2.68E-01  2.76E-01  2.38E-01  2.52E-01
 res:  2.48E-01
 ene: -6.24E-01 -5.98E-01 -5.69E-01 -5.40E-01 -1.97E-01 -1.81E-01 -1.69E-01 -1.57E-01
 ene: -1.30E-01 -1.13E-01 -8.47E-02 -7.09E-02 -4.39E-03  2.45E-02  6.78E-02  1.17E-01
 ene:  3.79E-01
 res:  1.03E-02  8.91E-03  1.22E-02  1.30E-02  6.21E-03  1.05E-02  8.52E-03  6.22E-03
 res:  8.21E-03  8.91E-03  1.11E-02  1.00E-02  1.87E-02  1.71E-02  2.50E-02  3.25E-02
 res:  1.11E-01
 ene: -7.12E-01 -7.10E-01 -7.08E-01 -7.07E-01 -2.68E-01 -2.65E-01 -2.40E-01 -2.37E-01
 ene: -2.06E-01 -2.00E-01 -1.83E-01 -1.75E-01 -1.33E-01 -1.16E-01 -1.03E-01 -9.66E-02
 ene: -1.04E-02
 vtowfk : number of one-way 3D ffts skipped in vtowfk until now =5
     eigenvalues (hartree) for   17  bands
              after    3 non-SCF iterations with    4 CG line minimizations
 -7.1161E-01 -7.1045E-01 -7.0795E-01 -7.0657E-01 -2.6783E-01 -2.6523E-01
 -2.3979E-01 -2.3724E-01 -2.0601E-01 -2.0008E-01 -1.8262E-01 -1.7540E-01
 -1.3339E-01 -1.1597E-01 -1.0310E-01 -9.6645E-02 -1.0372E-02
 non-scf iterations; kpt #     6  , k= (  0.00000 -0.25000  0.00000  ), band residuals:
 res:  1.13E+00  4.55E-01  6.98E-01  5.12E-01  3.79E-01  2.81E-01  3.41E-01  3.37E-01
 res:  2.70E-01  3.46E-01  2.47E-01  3.10E-01  3.22E-01  2.57E-01  2.96E-01  2.57E-01
 res:  2.81E-01
 ene: -6.33E-01 -5.79E-01 -5.29E-01 -5.11E-01 -2.15E-01 -1.92E-01 -1.68E-01 -1.54E-01
 ene: -1.24E-01 -1.00E-01 -8.76E-02 -5.93E-02 -1.25E-02  5.00E-02  8.49E-02  2.60E-01
 ene:  3.85E-01
 res:  9.27E-03  1.18E-02  1.92E-02  1.98E-02  8.35E-03  8.76E-03  1.16E-02  9.63E-03
 res:  9.62E-03  6.50E-03  9.04E-03  1.72E-02  2.07E-02  3.05E-02  3.18E-02  5.30E-02
 res:  1.07E-01
 ene: -7.46E-01 -7.06E-01 -7.00E-01 -6.98E-01 -2.73E-01 -2.58E-01 -2.38E-01 -2.32E-01
 ene: -2.24E-01 -2.09E-01 -1.69E-01 -1.49E-01 -1.46E-01 -1.31E-01 -1.16E-01 -3.72E-02
 ene:  1.49E-02
 vtowfk : number of one-way 3D ffts skipped in vtowfk until now =6
     eigenvalues (hartree) for   17  bands
              after    3 non-SCF iterations with    4 CG line minimizations
 -7.4642E-01 -7.0648E-01 -6.9968E-01 -6.9796E-01 -2.7283E-01 -2.5779E-01
 -2.3831E-01 -2.3207E-01 -2.2409E-01 -2.0911E-01 -1.6852E-01 -1.4910E-01
 -1.4589E-01 -1.3074E-01 -1.1641E-01 -3.7181E-02  1.4935E-02
 non-scf iterations; kpt #     7  , k= (  0.50000 -0.25000  0.50000  ), band residuals:
 res:  1.43E+00  4.19E-01  4.32E-01  4.30E-01  3.80E-01  3.22E-01  3.55E-01  3.12E-01
 res:  3.08E-01  2.99E-01  3.49E-01  3.10E-01  3.13E-01  1.98E-01  2.84E-01  3.61E-01
 res:  2.58E-01
 ene: -6.15E-01 -5.83E-01 -5.69E-01 -5.19E-01 -2.15E-01 -1.83E-01 -1.61E-01 -1.41E-01
 ene: -9.13E-02 -8.86E-02 -7.08E-02 -5.34E-02 -8.02E-03  2.31E-02  7.80E-02  1.37E-01
 ene:  4.46E-01
 res:  9.81E-03  9.35E-03  1.46E-02  1.29E-02  7.84E-03  1.13E-02  1.40E-02  1.36E-02
 res:  1.02E-02  8.85E-03  8.47E-03  1.31E-02  2.01E-02  1.76E-02  2.85E-02  4.37E-02
 res:  1.30E-01
 ene: -7.25E-01 -7.23E-01 -7.05E-01 -7.03E-01 -2.69E-01 -2.62E-01 -2.54E-01 -2.50E-01
 ene: -1.86E-01 -1.80E-01 -1.46E-01 -1.43E-01 -1.36E-01 -1.34E-01 -1.20E-01 -1.07E-01
 ene:  3.29E-02
 vtowfk : number of one-way 3D ffts skipped in vtowfk until now =7
     eigenvalues (hartree) for   17  bands
              after    3 non-SCF iterations with    4 CG line minimizations
 -7.2508E-01 -7.2281E-01 -7.0518E-01 -7.0272E-01 -2.6854E-01 -2.6220E-01
 -2.5423E-01 -2.4973E-01 -1.8565E-01 -1.7956E-01 -1.4627E-01 -1.4336E-01
 -1.3550E-01 -1.3370E-01 -1.2024E-01 -1.0696E-01  3.2889E-02
 non-scf iterations; kpt #     8  , k= (  0.50000  0.00000  0.25000  ), band residuals:
 res:  1.09E+00  5.47E-01  4.63E-01  4.37E-01  4.68E-01  3.78E-01  3.06E-01  2.52E-01
 res:  2.62E-01  3.86E-01  3.30E-01  2.70E-01  3.26E-01  3.01E-01  3.11E-01  2.47E-01
 res:  2.68E-01
 ene: -6.34E-01 -5.81E-01 -5.47E-01 -5.14E-01 -2.06E-01 -1.85E-01 -1.52E-01 -1.33E-01
 ene: -1.05E-01 -8.80E-02 -5.95E-02 -5.12E-02  7.35E-04  1.99E-02  1.15E-01  2.13E-01
 ene:  3.94E-01
 res:  7.93E-03  1.41E-02  1.59E-02  1.56E-02  8.18E-03  1.02E-02  1.72E-02  8.66E-03
 res:  9.71E-03  1.57E-02  1.58E-02  1.06E-02  2.77E-02  2.43E-02  3.13E-02  4.50E-02
 res:  1.50E-01
 ene: -7.39E-01 -7.38E-01 -7.00E-01 -6.96E-01 -2.81E-01 -2.74E-01 -2.27E-01 -2.19E-01
 ene: -1.96E-01 -1.91E-01 -1.57E-01 -1.43E-01 -1.30E-01 -1.25E-01 -1.04E-01 -3.74E-02
 ene:  3.70E-02
 vtowfk : number of one-way 3D ffts skipped in vtowfk until now =8
     eigenvalues (hartree) for   17  bands
              after    3 non-SCF iterations with    4 CG line minimizations
 -7.3911E-01 -7.3779E-01 -6.9957E-01 -6.9617E-01 -2.8150E-01 -2.7415E-01
 -2.2736E-01 -2.1922E-01 -1.9613E-01 -1.9134E-01 -1.5661E-01 -1.4340E-01
 -1.3024E-01 -1.2475E-01 -1.0407E-01 -3.7412E-02  3.7006E-02
 Total charge density [el/Bohr^3]
      Maximum=    8.9220E-01  at reduced coord.    0.8444    0.4333    0.8444
      Minimum=    6.2109E-04  at reduced coord.    0.0000    0.0000    0.0000
   Integrated=    3.2000E+01
 ETOT  1  -74.156648803175    -7.416E+01 1.501E-01 4.288E+02
 scprqt: <Vxc>= -4.0783657E-01 hartree

Simple mixing update:
  residual square of the potential :   213.03109993549887
 scfcv: previous iteration took 02 [s]

 ITER STEP NUMBER     2
 vtorho : nnsclo_now=2, note that nnsclo,dbl_nnsclo,istep=0 0 2
 non-scf iterations; kpt #     1  , k= ( -0.25000  0.50000  0.00000  ), band residuals:
 res:  6.70E-04  3.26E-04  5.61E-04  1.03E-03  2.39E-03  8.68E-04  1.81E-03  3.87E-03
 res:  1.69E-03  1.53E-03  1.51E-03  3.76E-03  2.94E-03  3.86E-03  4.34E-03  3.48E-03
 res:  6.59E-03
 ene: -7.49E-01 -7.49E-01 -7.41E-01 -7.41E-01 -2.71E-01 -2.71E-01 -2.45E-01 -2.44E-01
 ene: -2.20E-01 -2.20E-01 -2.00E-01 -1.99E-01 -1.72E-01 -1.71E-01 -1.67E-01 -1.67E-01
 ene:  5.66E-02
 res:  2.55E-05  4.04E-05  2.44E-05  6.76E-05  1.05E-04  5.34E-05  4.62E-05  8.29E-05
 res:  4.98E-05  8.68E-05  7.95E-05  1.08E-04  5.68E-05  1.42E-04  9.81E-05  1.54E-04
 res:  2.95E-03
 ene: -7.49E-01 -7.49E-01 -7.41E-01 -7.41E-01 -2.71E-01 -2.71E-01 -2.45E-01 -2.45E-01
 ene: -2.21E-01 -2.20E-01 -2.00E-01 -2.00E-01 -1.72E-01 -1.72E-01 -1.68E-01 -1.68E-01
 ene:  5.19E-02
 vtowfk : number of one-way 3D ffts skipped in vtowfk until now =9
     eigenvalues (hartree) for   17  bands
              after    3 non-SCF iterations with    4 CG line minimizations
 -7.4896E-01 -7.4895E-01 -7.4138E-01 -7.4137E-01 -2.7140E-01 -2.7138E-01
 -2.4496E-01 -2.4466E-01 -2.2079E-01 -2.2036E-01 -2.0008E-01 -2.0000E-01
 -1.7228E-01 -1.7223E-01 -1.6763E-01 -1.6759E-01  5.1912E-02
 non-scf iterations; kpt #     2  , k= (  0.50000 -0.25000  0.00000  ), band residuals:
 res:  5.01E-04  5.22E-04  4.20E-04  5.72E-04  1.35E-03  2.18E-03  2.23E-03  2.49E-03
 res:  2.43E-03  1.75E-03  2.53E-03  2.09E-03  4.52E-03  4.02E-03  3.13E-03  6.28E-03
 res:  1.05E-02
 ene: -7.62E-01 -7.62E-01 -7.38E-01 -7.38E-01 -2.66E-01 -2.66E-01 -2.45E-01 -2.45E-01
 ene: -2.26E-01 -2.26E-01 -2.01E-01 -2.01E-01 -1.69E-01 -1.69E-01 -1.43E-01 -1.42E-01
 ene:  7.11E-02
 res:  1.43E-05  5.68E-05  2.22E-05  6.04E-05  3.10E-05  8.17E-05  4.41E-05  7.93E-05
 res:  6.75E-05  1.25E-04  9.53E-05  1.63E-04  1.20E-04  2.27E-04  1.49E-04  3.29E-04
 res:  2.79E-03
 ene: -7.62E-01 -7.62E-01 -7.38E-01 -7.38E-01 -2.67E-01 -2.67E-01 -2.45E-01 -2.45E-01
 ene: -2.27E-01 -2.27E-01 -2.01E-01 -2.01E-01 -1.70E-01 -1.70E-01 -1.44E-01 -1.44E-01
 ene:  6.51E-02
 vtowfk : number of one-way 3D ffts skipped in vtowfk until now =10
     eigenvalues (hartree) for   17  bands
              after    3 non-SCF iterations with    4 CG line minimizations
 -7.6201E-01 -7.6200E-01 -7.3773E-01 -7.3772E-01 -2.6669E-01 -2.6666E-01
 -2.4517E-01 -2.4514E-01 -2.2690E-01 -2.2688E-01 -2.0146E-01 -2.0139E-01
 -1.7037E-01 -1.7026E-01 -1.4373E-01 -1.4360E-01  6.5106E-02
 non-scf iterations; kpt #     3  , k= ( -0.25000 -0.25000  0.25000  ), band residuals:
 res:  3.93E-04  4.92E-04  7.48E-04  5.74E-04  2.72E-03  1.70E-03  1.88E-03  1.71E-03
 res:  1.99E-03  2.58E-03  1.63E-03  3.76E-03  5.72E-03  6.00E-03  1.02E-02  1.01E-02
 res:  6.58E-03
 ene: -7.71E-01 -7.50E-01 -7.39E-01 -7.38E-01 -2.79E-01 -2.64E-01 -2.63E-01 -2.39E-01
 ene: -2.25E-01 -2.11E-01 -2.10E-01 -1.81E-01 -1.76E-01 -1.54E-01 -1.49E-01 -1.33E-01
 ene:  6.86E-02
 res:  4.32E-05  4.58E-05  5.05E-05  5.15E-05  7.37E-05  6.89E-05  6.61E-05  6.75E-05
 res:  6.92E-05  1.36E-04  7.19E-05  5.43E-04  2.04E-04  4.55E-04  1.17E-03  8.51E-04
 res:  1.98E-03
 ene: -7.71E-01 -7.51E-01 -7.39E-01 -7.38E-01 -2.79E-01 -2.65E-01 -2.63E-01 -2.39E-01
 ene: -2.25E-01 -2.12E-01 -2.10E-01 -1.85E-01 -1.77E-01 -1.57E-01 -1.53E-01 -1.36E-01
 ene:  6.52E-02
 vtowfk : number of one-way 3D ffts skipped in vtowfk until now =11
     eigenvalues (hartree) for   17  bands
              after    3 non-SCF iterations with    4 CG line minimizations
 -7.7126E-01 -7.5050E-01 -7.3886E-01 -7.3820E-01 -2.7906E-01 -2.6489E-01
 -2.6334E-01 -2.3903E-01 -2.2489E-01 -2.1189E-01 -2.1046E-01 -1.8512E-01
 -1.7729E-01 -1.5682E-01 -1.5261E-01 -1.3627E-01  6.5213E-02
 non-scf iterations; kpt #     4  , k= ( -0.25000  0.00000  0.00000  ), band residuals:
 res:  9.25E-04  3.75E-04  2.93E-04  4.96E-04  1.01E-03  1.41E-03  1.75E-03  3.05E-03
 res:  2.31E-03  2.97E-03  2.76E-03  6.65E-03  2.38E-03  5.13E-03  5.14E-03  1.11E-02
 res:  2.80E-02
 ene: -7.91E-01 -7.55E-01 -7.34E-01 -7.34E-01 -3.01E-01 -2.74E-01 -2.59E-01 -2.26E-01
 ene: -2.25E-01 -2.09E-01 -2.03E-01 -1.75E-01 -1.53E-01 -1.43E-01 -1.32E-01 -1.18E-01
 ene:  7.25E-02
 res:  8.83E-05  2.92E-05  4.04E-05  4.88E-05  6.52E-05  6.54E-05  9.25E-05  9.73E-05
 res:  1.47E-04  1.31E-04  1.30E-04  6.81E-04  3.84E-04  5.96E-04  6.16E-04  1.42E-03
 res:  5.60E-03
 ene: -7.92E-01 -7.55E-01 -7.34E-01 -7.34E-01 -3.01E-01 -2.75E-01 -2.60E-01 -2.26E-01
 ene: -2.26E-01 -2.10E-01 -2.03E-01 -1.80E-01 -1.54E-01 -1.45E-01 -1.34E-01 -1.24E-01
 ene:  5.49E-02
 vtowfk : number of one-way 3D ffts skipped in vtowfk until now =12
     eigenvalues (hartree) for   17  bands
              after    3 non-SCF iterations with    4 CG line minimizations
 -7.9156E-01 -7.5495E-01 -7.3426E-01 -7.3385E-01 -3.0106E-01 -2.7483E-01
 -2.6004E-01 -2.2648E-01 -2.2608E-01 -2.0993E-01 -2.0346E-01 -1.7974E-01
 -1.5395E-01 -1.4531E-01 -1.3437E-01 -1.2360E-01  5.4880E-02
 non-scf iterations; kpt #     5  , k= (  0.50000  0.50000  0.25000  ), band residuals:
 res:  2.64E-04  3.96E-04  1.01E-03  8.42E-04  1.89E-03  2.11E-03  1.68E-03  1.77E-03
 res:  3.90E-03  3.36E-03  1.74E-03  4.19E-03  2.96E-03  9.96E-03  3.12E-03  5.02E-03
 res:  9.65E-03
 ene: -7.46E-01 -7.46E-01 -7.44E-01 -7.44E-01 -2.84E-01 -2.83E-01 -2.59E-01 -2.59E-01
 ene: -2.12E-01 -2.12E-01 -2.02E-01 -2.01E-01 -1.63E-01 -1.60E-01 -1.43E-01 -1.42E-01
 ene:  6.05E-02
 res:  1.53E-05  7.16E-05  1.65E-05  3.47E-05  3.91E-05  1.19E-04  5.69E-05  8.92E-05
 res:  7.02E-05  2.08E-04  4.38E-05  2.09E-04  1.57E-04  4.87E-04  1.53E-04  3.17E-04
 res:  6.82E-03
 ene: -7.46E-01 -7.46E-01 -7.44E-01 -7.44E-01 -2.84E-01 -2.84E-01 -2.59E-01 -2.59E-01
 ene: -2.13E-01 -2.13E-01 -2.02E-01 -2.02E-01 -1.63E-01 -1.63E-01 -1.44E-01 -1.44E-01
 ene:  5.17E-02
 vtowfk : number of one-way 3D ffts skipped in vtowfk until now =13
     eigenvalues (hartree) for   17  bands
              after    3 non-SCF iterations with    4 CG line minimizations
 -7.4629E-01 -7.4629E-01 -7.4369E-01 -7.4368E-01 -2.8401E-01 -2.8396E-01
 -2.5906E-01 -2.5903E-01 -2.1267E-01 -2.1260E-01 -2.0219E-01 -2.0211E-01
 -1.6324E-01 -1.6292E-01 -1.4382E-01 -1.4368E-01  5.1724E-02
 non-scf iterations; kpt #     6  , k= (  0.00000 -0.25000  0.00000  ), band residuals:
 res:  4.86E-04  4.50E-04  4.91E-04  5.64E-04  1.08E-03  2.53E-03  2.31E-03  2.31E-03
 res:  2.85E-03  1.36E-03  3.53E-03  2.53E-03  2.49E-03  3.20E-03  3.18E-03  7.77E-02
 res:  9.64E-03
 ene: -7.81E-01 -7.42E-01 -7.37E-01 -7.37E-01 -2.87E-01 -2.57E-01 -2.49E-01 -2.44E-01
 ene: -2.44E-01 -2.30E-01 -1.90E-01 -1.81E-01 -1.79E-01 -1.50E-01 -1.46E-01 -5.85E-02
 ene:  8.00E-02
 res:  4.90E-05  4.58E-05  2.05E-05  4.80E-05  5.90E-05  1.11E-04  7.01E-05  8.72E-05
 res:  2.81E-04  7.88E-05  6.48E-04  1.24E-04  4.81E-04  1.35E-04  1.15E-03  9.20E-03
 res:  3.56E-03
 ene: -7.81E-01 -7.42E-01 -7.37E-01 -7.37E-01 -2.88E-01 -2.57E-01 -2.49E-01 -2.45E-01
 ene: -2.45E-01 -2.31E-01 -1.93E-01 -1.81E-01 -1.81E-01 -1.52E-01 -1.51E-01 -1.26E-01
 ene:  7.04E-02
 vtowfk : number of one-way 3D ffts skipped in vtowfk until now =14
     eigenvalues (hartree) for   17  bands
              after    3 non-SCF iterations with    4 CG line minimizations
 -7.8108E-01 -7.4249E-01 -7.3680E-01 -7.3679E-01 -2.8760E-01 -2.5745E-01
 -2.4930E-01 -2.4491E-01 -2.4486E-01 -2.3086E-01 -1.9252E-01 -1.8123E-01
 -1.8097E-01 -1.5151E-01 -1.5060E-01 -1.2591E-01  7.0422E-02
 non-scf iterations; kpt #     7  , k= (  0.50000 -0.25000  0.50000  ), band residuals:
 res:  6.08E-04  4.41E-04  5.16E-04  5.04E-04  1.65E-03  3.30E-03  2.65E-03  1.93E-03
 res:  3.11E-03  3.89E-03  4.13E-03  4.56E-03  4.63E-03  3.99E-03  5.98E-03  1.18E-02
 res:  1.09E-02
 ene: -7.59E-01 -7.59E-01 -7.41E-01 -7.41E-01 -2.78E-01 -2.77E-01 -2.67E-01 -2.67E-01
 ene: -2.00E-01 -1.99E-01 -1.67E-01 -1.66E-01 -1.66E-01 -1.65E-01 -1.60E-01 -1.59E-01
 ene:  8.46E-02
 res:  3.28E-05  3.67E-05  3.76E-05  5.21E-05  7.17E-05  7.79E-05  6.64E-05  1.43E-04
 res:  1.26E-04  1.36E-04  5.36E-05  1.33E-04  2.41E-04  3.20E-04  3.44E-04  3.09E-04
 res:  2.65E-03
 ene: -7.59E-01 -7.59E-01 -7.41E-01 -7.41E-01 -2.78E-01 -2.78E-01 -2.68E-01 -2.68E-01
 ene: -2.01E-01 -2.01E-01 -1.67E-01 -1.67E-01 -1.67E-01 -1.67E-01 -1.61E-01 -1.61E-01
 ene:  7.93E-02
 vtowfk : number of one-way 3D ffts skipped in vtowfk until now =15
     eigenvalues (hartree) for   17  bands
              after    3 non-SCF iterations with    4 CG line minimizations
 -7.5875E-01 -7.5874E-01 -7.4084E-01 -7.4083E-01 -2.7802E-01 -2.7801E-01
 -2.6789E-01 -2.6786E-01 -2.0057E-01 -2.0052E-01 -1.6715E-01 -1.6705E-01
 -1.6700E-01 -1.6683E-01 -1.6100E-01 -1.6095E-01  7.9295E-02
 non-scf iterations; kpt #     8  , k= (  0.50000  0.00000  0.25000  ), band residuals:
 res:  6.40E-04  4.84E-04  5.20E-04  1.23E-03  3.70E-03  2.47E-03  3.67E-03  5.12E-03
 res:  2.12E-03  2.31E-03  2.72E-03  5.49E-03  3.95E-03  4.74E-03  3.70E-03  6.00E-02
 res:  2.25E-02
 ene: -7.72E-01 -7.72E-01 -7.36E-01 -7.36E-01 -2.88E-01 -2.86E-01 -2.26E-01 -2.25E-01
 ene: -2.22E-01 -2.21E-01 -1.81E-01 -1.75E-01 -1.62E-01 -1.60E-01 -1.44E-01 -9.38E-02
 ene:  8.06E-02
 res:  4.33E-05  8.28E-05  2.54E-05  6.28E-05  1.39E-04  4.14E-04  1.49E-04  2.56E-04
 res:  8.24E-05  3.91E-04  1.28E-04  5.42E-04  1.05E-04  6.12E-04  7.06E-04  9.44E-03
 res:  6.60E-03
 ene: -7.72E-01 -7.72E-01 -7.36E-01 -7.36E-01 -2.88E-01 -2.88E-01 -2.27E-01 -2.27E-01
 ene: -2.23E-01 -2.22E-01 -1.82E-01 -1.81E-01 -1.63E-01 -1.62E-01 -1.47E-01 -1.40E-01
 ene:  6.01E-02
 vtowfk : number of one-way 3D ffts skipped in vtowfk until now =16
     eigenvalues (hartree) for   17  bands
              after    3 non-SCF iterations with    4 CG line minimizations
 -7.7237E-01 -7.7237E-01 -7.3629E-01 -7.3628E-01 -2.8846E-01 -2.8833E-01
 -2.2733E-01 -2.2701E-01 -2.2256E-01 -2.2239E-01 -1.8193E-01 -1.8076E-01
 -1.6295E-01 -1.6236E-01 -1.4658E-01 -1.4005E-01  6.0114E-02
 Total charge density [el/Bohr^3]
      Maximum=    9.6697E-01  at reduced coord.    0.3556    0.0000    0.7333
      Minimum=    3.6529E-04  at reduced coord.    0.0000    0.0000    0.0000
   Integrated=    3.2000E+01
 ETOT  2  -74.368884304837    -2.122E-01 9.440E-03 3.599E+02
 scprqt: <Vxc>= -4.0302337E-01 hartree

 Pulay update with  1 previous iterations:
 mixing of old trial potential : alpha(m:m-4)=  0.522      0.478
 scfcv: previous iteration took 02 [s]

 ITER STEP NUMBER     3
 vtorho : nnsclo_now=1, note that nnsclo,dbl_nnsclo,istep=0 0 3
 non-scf iterations; kpt #     1  , k= ( -0.25000  0.50000  0.00000  ), band residuals:
 res:  1.54E-04  1.56E-04  2.38E-04  2.10E-04  5.65E-04  5.80E-04  6.67E-04  6.17E-04
 res:  5.40E-04  6.06E-04  1.06E-03  1.08E-03  1.13E-03  1.29E-03  9.72E-04  1.07E-03
 res:  8.10E-04
 ene: -6.97E-01 -6.97E-01 -6.89E-01 -6.89E-01 -2.44E-01 -2.44E-01 -2.13E-01 -2.13E-01
 ene: -1.86E-01 -1.86E-01 -1.65E-01 -1.65E-01 -1.31E-01 -1.31E-01 -1.24E-01 -1.24E-01
 ene:  1.79E-02
 vtowfk : number of one-way 3D ffts skipped in vtowfk until now =17
     eigenvalues (hartree) for   17  bands
              after    2 non-SCF iterations with    4 CG line minimizations
 -6.9673E-01 -6.9672E-01 -6.8855E-01 -6.8854E-01 -2.4363E-01 -2.4362E-01
 -2.1343E-01 -2.1329E-01 -1.8621E-01 -1.8601E-01 -1.6499E-01 -1.6497E-01
 -1.3111E-01 -1.3106E-01 -1.2401E-01 -1.2353E-01  1.7896E-02
 non-scf iterations; kpt #     2  , k= (  0.50000 -0.25000  0.00000  ), band residuals:
 res:  1.02E-04  1.04E-04  2.03E-04  2.08E-04  5.77E-04  5.32E-04  7.10E-04  6.86E-04
 res:  9.72E-04  9.77E-04  9.48E-04  1.05E-03  2.00E-03  1.92E-03  8.59E-04  5.78E-04
 res:  1.84E-03
 ene: -7.11E-01 -7.11E-01 -6.85E-01 -6.85E-01 -2.36E-01 -2.36E-01 -2.16E-01 -2.16E-01
 ene: -1.96E-01 -1.96E-01 -1.65E-01 -1.65E-01 -1.33E-01 -1.33E-01 -9.53E-02 -9.51E-02
 ene:  2.96E-02
 vtowfk : number of one-way 3D ffts skipped in vtowfk until now =18
     eigenvalues (hartree) for   17  bands
              after    2 non-SCF iterations with    4 CG line minimizations
 -7.1119E-01 -7.1118E-01 -6.8458E-01 -6.8457E-01 -2.3604E-01 -2.3599E-01
 -2.1638E-01 -2.1636E-01 -1.9645E-01 -1.9642E-01 -1.6474E-01 -1.6466E-01
 -1.3314E-01 -1.3309E-01 -9.5319E-02 -9.5109E-02  2.9630E-02
 non-scf iterations; kpt #     3  , k= ( -0.25000 -0.25000  0.25000  ), band residuals:
 res:  9.08E-05  1.56E-04  1.49E-04  2.18E-04  5.52E-04  6.29E-04  6.05E-04  8.32E-04
 res:  1.06E-03  5.12E-04  1.46E-03  1.18E-03  3.81E-04  1.71E-03  1.15E-03  8.66E-04
 res:  1.79E-03
 ene: -7.21E-01 -6.98E-01 -6.86E-01 -6.85E-01 -2.50E-01 -2.36E-01 -2.34E-01 -2.12E-01
 ene: -1.96E-01 -1.78E-01 -1.74E-01 -1.49E-01 -1.34E-01 -1.17E-01 -1.09E-01 -8.44E-02
 ene:  2.86E-02
 vtowfk : number of one-way 3D ffts skipped in vtowfk until now =19
     eigenvalues (hartree) for   17  bands
              after    2 non-SCF iterations with    4 CG line minimizations
 -7.2143E-01 -6.9841E-01 -6.8565E-01 -6.8519E-01 -2.4990E-01 -2.3579E-01
 -2.3421E-01 -2.1188E-01 -1.9587E-01 -1.7813E-01 -1.7429E-01 -1.4856E-01
 -1.3373E-01 -1.1744E-01 -1.0903E-01 -8.4373E-02  2.8551E-02
 non-scf iterations; kpt #     4  , k= ( -0.25000  0.00000  0.00000  ), band residuals:
 res:  7.79E-05  1.99E-04  1.46E-04  5.80E-05  5.20E-04  7.32E-04  6.35E-04  7.91E-04
 res:  8.83E-04  7.67E-04  5.37E-04  5.11E-04  1.54E-03  6.77E-04  1.43E-03  1.05E-03
 res:  1.30E-03
 ene: -7.44E-01 -7.04E-01 -6.80E-01 -6.80E-01 -2.73E-01 -2.52E-01 -2.30E-01 -2.05E-01
 ene: -2.04E-01 -1.72E-01 -1.64E-01 -1.36E-01 -1.09E-01 -9.76E-02 -8.49E-02 -6.99E-02
 ene:  2.09E-02
 vtowfk : number of one-way 3D ffts skipped in vtowfk until now =20
     eigenvalues (hartree) for   17  bands
              after    2 non-SCF iterations with    4 CG line minimizations
 -7.4388E-01 -7.0373E-01 -6.8042E-01 -6.7962E-01 -2.7256E-01 -2.5178E-01
 -2.2990E-01 -2.0460E-01 -2.0382E-01 -1.7228E-01 -1.6401E-01 -1.3597E-01
 -1.0901E-01 -9.7552E-02 -8.4935E-02 -6.9933E-02  2.0912E-02
 non-scf iterations; kpt #     5  , k= (  0.50000  0.50000  0.25000  ), band residuals:
 res:  2.11E-04  2.14E-04  1.55E-04  1.65E-04  4.35E-04  4.44E-04  3.08E-04  3.22E-04
 res:  1.27E-03  1.33E-03  9.95E-04  1.04E-03  1.83E-03  1.99E-03  2.27E-04  1.77E-04
 res:  2.28E-03
 ene: -6.94E-01 -6.94E-01 -6.91E-01 -6.91E-01 -2.55E-01 -2.55E-01 -2.26E-01 -2.26E-01
 ene: -1.85E-01 -1.85E-01 -1.66E-01 -1.66E-01 -1.20E-01 -1.20E-01 -9.24E-02 -9.22E-02
 ene:  1.18E-02
 vtowfk : number of one-way 3D ffts skipped in vtowfk until now =21
     eigenvalues (hartree) for   17  bands
              after    2 non-SCF iterations with    4 CG line minimizations
 -6.9399E-01 -6.9398E-01 -6.9087E-01 -6.9086E-01 -2.5523E-01 -2.5520E-01
 -2.2558E-01 -2.2556E-01 -1.8544E-01 -1.8540E-01 -1.6571E-01 -1.6569E-01
 -1.2008E-01 -1.1996E-01 -9.2385E-02 -9.2221E-02  1.1755E-02
 non-scf iterations; kpt #     6  , k= (  0.00000 -0.25000  0.00000  ), band residuals:
 res:  7.70E-05  2.64E-04  1.39E-04  1.41E-04  4.41E-04  8.63E-04  7.73E-04  8.29E-04
 res:  7.74E-04  3.91E-04  9.15E-04  3.15E-04  2.35E-04  2.56E-03  2.04E-03  1.76E-03
 res:  3.25E-03
 ene: -7.32E-01 -6.90E-01 -6.83E-01 -6.83E-01 -2.58E-01 -2.34E-01 -2.19E-01 -2.18E-01
 ene: -2.18E-01 -1.95E-01 -1.55E-01 -1.37E-01 -1.37E-01 -1.12E-01 -1.11E-01 -7.55E-02
 ene:  3.15E-02
 vtowfk : number of one-way 3D ffts skipped in vtowfk until now =22
     eigenvalues (hartree) for   17  bands
              after    2 non-SCF iterations with    4 CG line minimizations
 -7.3226E-01 -6.8985E-01 -6.8322E-01 -6.8321E-01 -2.5765E-01 -2.3396E-01
 -2.1893E-01 -2.1826E-01 -2.1824E-01 -1.9535E-01 -1.5508E-01 -1.3704E-01
 -1.3702E-01 -1.1171E-01 -1.1122E-01 -7.5472E-02  3.1496E-02
 non-scf iterations; kpt #     7  , k= (  0.50000 -0.25000  0.50000  ), band residuals:
 res:  1.58E-04  1.58E-04  1.60E-04  1.57E-04  5.72E-04  5.72E-04  5.31E-04  5.33E-04
 res:  1.15E-03  1.15E-03  2.03E-03  1.97E-03  2.30E-03  2.26E-03  2.27E-04  1.66E-04
 res:  1.77E-03
 ene: -7.08E-01 -7.08E-01 -6.88E-01 -6.88E-01 -2.49E-01 -2.49E-01 -2.40E-01 -2.40E-01
 ene: -1.67E-01 -1.67E-01 -1.29E-01 -1.29E-01 -1.28E-01 -1.28E-01 -1.13E-01 -1.13E-01
 ene:  4.78E-02
 vtowfk : number of one-way 3D ffts skipped in vtowfk until now =23
     eigenvalues (hartree) for   17  bands
              after    2 non-SCF iterations with    4 CG line minimizations
 -7.0758E-01 -7.0758E-01 -6.8794E-01 -6.8793E-01 -2.4912E-01 -2.4911E-01
 -2.4044E-01 -2.4041E-01 -1.6671E-01 -1.6666E-01 -1.2926E-01 -1.2918E-01
 -1.2773E-01 -1.2761E-01 -1.1339E-01 -1.1337E-01  4.7831E-02
 non-scf iterations; kpt #     8  , k= (  0.50000  0.00000  0.25000  ), band residuals:
 res:  1.45E-04  1.48E-04  1.07E-04  1.15E-04  7.16E-04  6.87E-04  8.28E-04  1.10E-03
 res:  5.91E-04  6.75E-04  1.20E-03  1.53E-03  6.25E-04  3.82E-04  1.14E-03  2.57E-03
 res:  3.67E-03
 ene: -7.23E-01 -7.23E-01 -6.83E-01 -6.83E-01 -2.63E-01 -2.63E-01 -2.05E-01 -2.05E-01
 ene: -1.86E-01 -1.86E-01 -1.43E-01 -1.43E-01 -1.17E-01 -1.17E-01 -9.94E-02 -9.81E-02
 ene:  1.96E-02
 vtowfk : number of one-way 3D ffts skipped in vtowfk until now =24
     eigenvalues (hartree) for   17  bands
              after    2 non-SCF iterations with    4 CG line minimizations
 -7.2288E-01 -7.2287E-01 -6.8262E-01 -6.8261E-01 -2.6254E-01 -2.6251E-01
 -2.0504E-01 -2.0499E-01 -1.8626E-01 -1.8621E-01 -1.4320E-01 -1.4288E-01
 -1.1722E-01 -1.1708E-01 -9.9378E-02 -9.8136E-02  1.9570E-02
 Total charge density [el/Bohr^3]
      Maximum=    8.6103E-01  at reduced coord.    0.3556    0.0667    0.6889
      Minimum=    3.6799E-04  at reduced coord.    0.0000    0.0000    0.0000
   Integrated=    3.2000E+01
 ETOT  3  -74.499979152348    -1.311E-01 3.668E-03 5.733E+01
 scprqt: <Vxc>= -4.1241342E-01 hartree

 Pulay update with  2 previous iterations:
 mixing of old trial potential : alpha(m:m-4)=  0.627      0.306      0.674E-01
 scfcv: previous iteration took 01 [s]

 ITER STEP NUMBER     4
 vtorho : nnsclo_now=1, note that nnsclo,dbl_nnsclo,istep=0 0 4
 non-scf iterations; kpt #     1  , k= ( -0.25000  0.50000  0.00000  ), band residuals:
 res:  6.08E-06  6.62E-06  1.48E-05  1.54E-05  3.10E-05  3.09E-05  3.27E-05  3.06E-05
 res:  2.63E-05  2.89E-05  2.87E-05  2.70E-05  4.36E-05  4.02E-05  9.03E-05  1.43E-05
 res:  3.82E-04
 ene: -7.24E-01 -7.24E-01 -7.16E-01 -7.16E-01 -2.62E-01 -2.62E-01 -2.34E-01 -2.34E-01
 ene: -2.07E-01 -2.07E-01 -1.88E-01 -1.88E-01 -1.54E-01 -1.54E-01 -1.47E-01 -1.46E-01
 ene:  1.44E-02
 vtowfk : number of one-way 3D ffts skipped in vtowfk until now =25
     eigenvalues (hartree) for   17  bands
              after    2 non-SCF iterations with    4 CG line minimizations
 -7.2422E-01 -7.2420E-01 -7.1645E-01 -7.1644E-01 -2.6196E-01 -2.6196E-01
 -2.3415E-01 -2.3412E-01 -2.0729E-01 -2.0725E-01 -1.8770E-01 -1.8768E-01
 -1.5392E-01 -1.5391E-01 -1.4651E-01 -1.4648E-01  1.4435E-02
 non-scf iterations; kpt #     2  , k= (  0.50000 -0.25000  0.00000  ), band residuals:
 res:  1.78E-05  1.88E-05  1.50E-05  1.60E-05  3.40E-05  3.32E-05  3.25E-05  3.18E-05
 res:  4.82E-05  4.56E-05  3.71E-05  2.39E-05  6.87E-05  7.07E-05  6.03E-05  1.75E-05
 res:  1.05E-03
 ene: -7.38E-01 -7.38E-01 -7.13E-01 -7.13E-01 -2.55E-01 -2.55E-01 -2.36E-01 -2.36E-01
 ene: -2.18E-01 -2.18E-01 -1.86E-01 -1.86E-01 -1.56E-01 -1.56E-01 -1.20E-01 -1.20E-01
 ene:  2.53E-02
 vtowfk : number of one-way 3D ffts skipped in vtowfk until now =26
     eigenvalues (hartree) for   17  bands
              after    2 non-SCF iterations with    4 CG line minimizations
 -7.3795E-01 -7.3794E-01 -7.1261E-01 -7.1260E-01 -2.5501E-01 -2.5500E-01
 -2.3632E-01 -2.3631E-01 -2.1756E-01 -2.1755E-01 -1.8647E-01 -1.8646E-01
 -1.5565E-01 -1.5564E-01 -1.1988E-01 -1.1987E-01  2.5273E-02
 non-scf iterations; kpt #     3  , k= ( -0.25000 -0.25000  0.25000  ), band residuals:
 res:  1.77E-05  1.41E-05  1.38E-05  1.56E-05  3.02E-05  3.66E-05  3.18E-05  4.44E-05
 res:  5.23E-05  6.51E-05  2.87E-05  4.22E-05  2.08E-05  7.39E-05  5.86E-05  4.74E-05
 res:  1.30E-03
 ene: -7.48E-01 -7.26E-01 -7.14E-01 -7.13E-01 -2.69E-01 -2.54E-01 -2.53E-01 -2.32E-01
 ene: -2.17E-01 -1.98E-01 -1.97E-01 -1.72E-01 -1.57E-01 -1.41E-01 -1.33E-01 -1.11E-01
 ene:  2.46E-02
 vtowfk : number of one-way 3D ffts skipped in vtowfk until now =27
     eigenvalues (hartree) for   17  bands
              after    2 non-SCF iterations with    4 CG line minimizations
 -7.4776E-01 -7.2582E-01 -7.1360E-01 -7.1319E-01 -2.6935E-01 -2.5443E-01
 -2.5322E-01 -2.3209E-01 -2.1666E-01 -1.9787E-01 -1.9660E-01 -1.7164E-01
 -1.5709E-01 -1.4062E-01 -1.3304E-01 -1.1071E-01  2.4578E-02
 non-scf iterations; kpt #     4  , k= ( -0.25000  0.00000  0.00000  ), band residuals:
 res:  1.58E-05  1.77E-05  1.22E-05  8.50E-06  4.82E-05  6.77E-05  4.16E-05  1.17E-04
 res:  1.07E-04  2.36E-05  1.38E-05  2.89E-05  6.96E-05  2.22E-05  5.02E-05  1.08E-04
 res:  5.04E-04
 ene: -7.69E-01 -7.31E-01 -7.09E-01 -7.08E-01 -2.91E-01 -2.70E-01 -2.48E-01 -2.24E-01
 ene: -2.24E-01 -1.94E-01 -1.87E-01 -1.61E-01 -1.33E-01 -1.24E-01 -1.11E-01 -9.72E-02
 ene:  1.82E-02
 vtowfk : number of one-way 3D ffts skipped in vtowfk until now =28
     eigenvalues (hartree) for   17  bands
              after    2 non-SCF iterations with    4 CG line minimizations
 -7.6929E-01 -7.3084E-01 -7.0861E-01 -7.0786E-01 -2.9090E-01 -2.6965E-01
 -2.4775E-01 -2.2448E-01 -2.2381E-01 -1.9448E-01 -1.8675E-01 -1.6082E-01
 -1.3350E-01 -1.2401E-01 -1.1123E-01 -9.7178E-02  1.8237E-02
 non-scf iterations; kpt #     5  , k= (  0.50000  0.50000  0.25000  ), band residuals:
 res:  8.42E-06  8.09E-06  1.34E-05  1.37E-05  2.65E-05  1.65E-05  1.37E-05  1.52E-05
 res:  7.61E-05  7.71E-05  1.65E-05  1.78E-05  5.83E-05  5.95E-05  2.29E-05  1.87E-05
 res:  1.87E-03
 ene: -7.22E-01 -7.22E-01 -7.19E-01 -7.19E-01 -2.74E-01 -2.74E-01 -2.46E-01 -2.46E-01
 ene: -2.06E-01 -2.06E-01 -1.89E-01 -1.89E-01 -1.43E-01 -1.43E-01 -1.19E-01 -1.19E-01
 ene:  7.20E-03
 vtowfk : number of one-way 3D ffts skipped in vtowfk until now =29
     eigenvalues (hartree) for   17  bands
              after    2 non-SCF iterations with    4 CG line minimizations
 -7.2165E-01 -7.2164E-01 -7.1862E-01 -7.1861E-01 -2.7352E-01 -2.7351E-01
 -2.4599E-01 -2.4598E-01 -2.0599E-01 -2.0598E-01 -1.8885E-01 -1.8883E-01
 -1.4300E-01 -1.4297E-01 -1.1861E-01 -1.1857E-01  7.1960E-03
 non-scf iterations; kpt #     6  , k= (  0.00000 -0.25000  0.00000  ), band residuals:
 res:  1.58E-05  1.37E-05  9.90E-06  1.02E-05  3.09E-05  1.05E-04  4.63E-05  4.50E-05
 res:  4.22E-05  1.66E-05  4.87E-05  1.25E-05  1.50E-05  1.12E-04  6.38E-05  3.02E-04
 res:  1.24E-03
 ene: -7.58E-01 -7.18E-01 -7.11E-01 -7.11E-01 -2.77E-01 -2.53E-01 -2.38E-01 -2.38E-01
 ene: -2.37E-01 -2.17E-01 -1.78E-01 -1.61E-01 -1.61E-01 -1.35E-01 -1.35E-01 -1.03E-01
 ene:  2.68E-02
 vtowfk : number of one-way 3D ffts skipped in vtowfk until now =30
     eigenvalues (hartree) for   17  bands
              after    2 non-SCF iterations with    4 CG line minimizations
 -7.5812E-01 -7.1765E-01 -7.1133E-01 -7.1132E-01 -2.7686E-01 -2.5301E-01
 -2.3774E-01 -2.3774E-01 -2.3670E-01 -2.1718E-01 -1.7780E-01 -1.6111E-01
 -1.6109E-01 -1.3469E-01 -1.3463E-01 -1.0326E-01  2.6844E-02
 non-scf iterations; kpt #     7  , k= (  0.50000 -0.25000  0.50000  ), band residuals:
 res:  1.33E-05  1.40E-05  1.65E-05  1.68E-05  2.94E-05  2.73E-05  3.01E-05  2.78E-05
 res:  5.42E-05  5.20E-05  7.92E-05  9.90E-05  1.12E-04  9.35E-05  2.04E-05  3.19E-05
 res:  5.36E-04
 ene: -7.35E-01 -7.35E-01 -7.16E-01 -7.16E-01 -2.69E-01 -2.69E-01 -2.59E-01 -2.59E-01
 ene: -1.89E-01 -1.89E-01 -1.52E-01 -1.52E-01 -1.49E-01 -1.49E-01 -1.39E-01 -1.39E-01
 ene:  4.23E-02
 vtowfk : number of one-way 3D ffts skipped in vtowfk until now =31
     eigenvalues (hartree) for   17  bands
              after    2 non-SCF iterations with    4 CG line minimizations
 -7.3461E-01 -7.3460E-01 -7.1574E-01 -7.1573E-01 -2.6859E-01 -2.6857E-01
 -2.5919E-01 -2.5918E-01 -1.8858E-01 -1.8858E-01 -1.5211E-01 -1.5210E-01
 -1.4869E-01 -1.4861E-01 -1.3937E-01 -1.3936E-01  4.2323E-02
 non-scf iterations; kpt #     8  , k= (  0.50000  0.00000  0.25000  ), band residuals:
 res:  1.91E-05  1.91E-05  1.47E-05  1.55E-05  5.27E-05  5.46E-05  1.07E-04  9.05E-05
 res:  2.88E-05  3.36E-05  5.12E-05  8.30E-05  3.21E-05  2.79E-05  6.95E-05  2.92E-04
 res:  9.78E-04
 ene: -7.49E-01 -7.49E-01 -7.11E-01 -7.11E-01 -2.81E-01 -2.81E-01 -2.25E-01 -2.25E-01
 ene: -2.07E-01 -2.07E-01 -1.66E-01 -1.66E-01 -1.43E-01 -1.43E-01 -1.24E-01 -1.24E-01
 ene:  1.54E-02
 vtowfk : number of one-way 3D ffts skipped in vtowfk until now =32
     eigenvalues (hartree) for   17  bands
              after    2 non-SCF iterations with    4 CG line minimizations
 -7.4917E-01 -7.4916E-01 -7.1065E-01 -7.1064E-01 -2.8074E-01 -2.8073E-01
 -2.2496E-01 -2.2495E-01 -2.0687E-01 -2.0686E-01 -1.6560E-01 -1.6554E-01
 -1.4268E-01 -1.4265E-01 -1.2445E-01 -1.2408E-01  1.5391E-02
 Total charge density [el/Bohr^3]
      Maximum=    9.0025E-01  at reduced coord.    0.3556    0.0000    0.7333
      Minimum=    3.9667E-04  at reduced coord.    0.0000    0.0000    0.0000
   Integrated=    3.2000E+01
 ETOT  4  -74.534310294273    -3.433E-02 1.871E-03 1.930E+00
 scprqt: <Vxc>= -4.0806207E-01 hartree

 Pulay update with  3 previous iterations:
 mixing of old trial potential : alpha(m:m-4)=   1.02      0.318E-01  0.976E-02 -0.626E-01
 scfcv: previous iteration took 01 [s]

 ITER STEP NUMBER     5
 vtorho : nnsclo_now=1, note that nnsclo,dbl_nnsclo,istep=0 0 5
 non-scf iterations; kpt #     1  , k= ( -0.25000  0.50000  0.00000  ), band residuals:
 res:  2.78E-07  2.98E-07  1.08E-06  1.17E-06  1.18E-05  1.19E-05  8.45E-06  8.10E-06
 res:  9.05E-06  9.42E-06  1.06E-05  9.55E-06  3.00E-05  3.13E-05  6.23E-06  1.56E-05
 res:  3.23E-04
 ene: -7.20E-01 -7.20E-01 -7.12E-01 -7.12E-01 -2.57E-01 -2.57E-01 -2.29E-01 -2.29E-01
 ene: -2.03E-01 -2.03E-01 -1.83E-01 -1.83E-01 -1.49E-01 -1.49E-01 -1.42E-01 -1.42E-01
 ene:  2.32E-02
 vtowfk : number of one-way 3D ffts skipped in vtowfk until now =33
     eigenvalues (hartree) for   17  bands
              after    2 non-SCF iterations with    4 CG line minimizations
 -7.1955E-01 -7.1954E-01 -7.1175E-01 -7.1174E-01 -2.5719E-01 -2.5719E-01
 -2.2928E-01 -2.2924E-01 -2.0257E-01 -2.0253E-01 -1.8285E-01 -1.8283E-01
 -1.4923E-01 -1.4922E-01 -1.4206E-01 -1.4204E-01  2.3199E-02
 non-scf iterations; kpt #     2  , k= (  0.50000 -0.25000  0.00000  ), band residuals:
 res:  8.73E-07  1.02E-06  2.18E-06  2.19E-06  1.42E-05  1.68E-05  8.95E-06  9.13E-06
 res:  1.24E-05  1.33E-05  1.15E-05  1.20E-05  4.11E-05  3.90E-05  1.88E-05  3.35E-05
 res:  9.99E-04
 ene: -7.33E-01 -7.33E-01 -7.08E-01 -7.08E-01 -2.50E-01 -2.50E-01 -2.31E-01 -2.31E-01
 ene: -2.13E-01 -2.13E-01 -1.82E-01 -1.82E-01 -1.51E-01 -1.51E-01 -1.15E-01 -1.15E-01
 ene:  3.32E-02
 vtowfk : number of one-way 3D ffts skipped in vtowfk until now =34
     eigenvalues (hartree) for   17  bands
              after    2 non-SCF iterations with    4 CG line minimizations
 -7.3332E-01 -7.3332E-01 -7.0792E-01 -7.0791E-01 -2.5014E-01 -2.5014E-01
 -2.3142E-01 -2.3141E-01 -2.1253E-01 -2.1252E-01 -1.8185E-01 -1.8185E-01
 -1.5068E-01 -1.5068E-01 -1.1529E-01 -1.1528E-01  3.3177E-02
 non-scf iterations; kpt #     3  , k= ( -0.25000 -0.25000  0.25000  ), band residuals:
 res:  8.76E-07  4.45E-07  8.14E-07  2.00E-06  8.38E-06  1.19E-05  1.46E-05  9.08E-06
 res:  1.43E-05  2.84E-05  5.50E-06  2.47E-05  1.52E-05  5.09E-05  2.33E-05  1.01E-05
 res:  1.26E-03
 ene: -7.43E-01 -7.21E-01 -7.09E-01 -7.08E-01 -2.64E-01 -2.50E-01 -2.48E-01 -2.27E-01
 ene: -2.12E-01 -1.93E-01 -1.92E-01 -1.67E-01 -1.53E-01 -1.36E-01 -1.28E-01 -1.06E-01
 ene:  3.22E-02
 vtowfk : number of one-way 3D ffts skipped in vtowfk until now =35
     eigenvalues (hartree) for   17  bands
              after    2 non-SCF iterations with    4 CG line minimizations
 -7.4315E-01 -7.2111E-01 -7.0896E-01 -7.0849E-01 -2.6429E-01 -2.4974E-01
 -2.4836E-01 -2.2700E-01 -2.1158E-01 -1.9319E-01 -1.9191E-01 -1.6681E-01
 -1.5257E-01 -1.3565E-01 -1.2820E-01 -1.0634E-01  3.2157E-02
 non-scf iterations; kpt #     4  , k= ( -0.25000  0.00000  0.00000  ), band residuals:
 res:  9.58E-07  5.96E-07  9.89E-07  3.00E-07  6.76E-06  1.10E-05  1.56E-05  3.28E-06
 res:  3.66E-06  6.58E-06  4.95E-06  1.70E-05  1.25E-05  3.00E-05  1.70E-05  4.10E-05
 res:  4.53E-04
 ene: -7.65E-01 -7.26E-01 -7.04E-01 -7.03E-01 -2.86E-01 -2.64E-01 -2.43E-01 -2.19E-01
 ene: -2.19E-01 -1.90E-01 -1.82E-01 -1.56E-01 -1.29E-01 -1.19E-01 -1.07E-01 -9.29E-02
 ene:  2.74E-02
 vtowfk : number of one-way 3D ffts skipped in vtowfk until now =36
     eigenvalues (hartree) for   17  bands
              after    2 non-SCF iterations with    4 CG line minimizations
 -7.6471E-01 -7.2609E-01 -7.0396E-01 -7.0324E-01 -2.8577E-01 -2.6412E-01
 -2.4334E-01 -2.1917E-01 -2.1852E-01 -1.8991E-01 -1.8217E-01 -1.5624E-01
 -1.2871E-01 -1.1925E-01 -1.0665E-01 -9.2886E-02  2.7421E-02
 non-scf iterations; kpt #     5  , k= (  0.50000  0.50000  0.25000  ), band residuals:
 res:  1.13E-06  1.05E-06  6.67E-07  6.46E-07  8.43E-06  7.18E-06  4.20E-06  3.77E-06
 res:  1.11E-05  1.14E-05  7.40E-06  6.56E-06  4.62E-05  5.34E-05  3.46E-06  8.98E-06
 res:  8.03E-04
 ene: -7.17E-01 -7.17E-01 -7.14E-01 -7.14E-01 -2.69E-01 -2.69E-01 -2.41E-01 -2.41E-01
 ene: -2.01E-01 -2.01E-01 -1.84E-01 -1.84E-01 -1.38E-01 -1.38E-01 -1.14E-01 -1.14E-01
 ene:  1.45E-02
 vtowfk : number of one-way 3D ffts skipped in vtowfk until now =37
     eigenvalues (hartree) for   17  bands
              after    2 non-SCF iterations with    4 CG line minimizations
 -7.1696E-01 -7.1695E-01 -7.1395E-01 -7.1394E-01 -2.6889E-01 -2.6888E-01
 -2.4142E-01 -2.4140E-01 -2.0082E-01 -2.0081E-01 -1.8401E-01 -1.8398E-01
 -1.3836E-01 -1.3834E-01 -1.1426E-01 -1.1424E-01  1.4533E-02
 non-scf iterations; kpt #     6  , k= (  0.00000 -0.25000  0.00000  ), band residuals:
 res:  5.19E-07  1.42E-06  9.23E-07  6.89E-07  6.84E-06  6.72E-06  1.32E-05  1.42E-05
 res:  2.17E-05  3.40E-06  1.38E-05  3.34E-06  9.99E-06  5.30E-05  7.65E-05  1.63E-04
 res:  1.33E-03
 ene: -7.54E-01 -7.13E-01 -7.07E-01 -7.07E-01 -2.72E-01 -2.48E-01 -2.33E-01 -2.33E-01
 ene: -2.32E-01 -2.13E-01 -1.73E-01 -1.57E-01 -1.57E-01 -1.30E-01 -1.30E-01 -9.94E-02
 ene:  3.48E-02
 vtowfk : number of one-way 3D ffts skipped in vtowfk until now =38
     eigenvalues (hartree) for   17  bands
              after    2 non-SCF iterations with    4 CG line minimizations
 -7.5355E-01 -7.1287E-01 -7.0668E-01 -7.0667E-01 -2.7181E-01 -2.4752E-01
 -2.3279E-01 -2.3279E-01 -2.3233E-01 -2.1258E-01 -1.7297E-01 -1.5664E-01
 -1.5663E-01 -1.2960E-01 -1.2958E-01 -9.9443E-02  3.4835E-02
 non-scf iterations; kpt #     7  , k= (  0.50000 -0.25000  0.50000  ), band residuals:
 res:  3.14E-07  3.24E-07  7.63E-07  6.91E-07  7.54E-06  1.02E-05  7.80E-06  9.08E-06
 res:  2.13E-05  2.26E-05  2.59E-05  3.24E-05  2.17E-05  6.95E-05  4.31E-06  5.33E-06
 res:  5.88E-04
 ene: -7.30E-01 -7.30E-01 -7.11E-01 -7.11E-01 -2.64E-01 -2.64E-01 -2.55E-01 -2.54E-01
 ene: -1.84E-01 -1.84E-01 -1.47E-01 -1.47E-01 -1.44E-01 -1.44E-01 -1.35E-01 -1.35E-01
 ene:  5.08E-02
 vtowfk : number of one-way 3D ffts skipped in vtowfk until now =39
     eigenvalues (hartree) for   17  bands
              after    2 non-SCF iterations with    4 CG line minimizations
 -7.2992E-01 -7.2991E-01 -7.1112E-01 -7.1111E-01 -2.6353E-01 -2.6351E-01
 -2.5450E-01 -2.5450E-01 -1.8364E-01 -1.8363E-01 -1.4726E-01 -1.4726E-01
 -1.4392E-01 -1.4388E-01 -1.3483E-01 -1.3483E-01  5.0761E-02
 non-scf iterations; kpt #     8  , k= (  0.50000  0.00000  0.25000  ), band residuals:
 res:  7.37E-07  7.64E-07  4.14E-07  3.78E-07  1.43E-05  1.07E-05  3.68E-06  6.26E-06
 res:  7.26E-06  9.84E-06  2.64E-05  3.91E-05  1.08E-05  3.88E-05  1.44E-05  1.50E-04
 res:  7.84E-04
 ene: -7.45E-01 -7.44E-01 -7.06E-01 -7.06E-01 -2.75E-01 -2.75E-01 -2.20E-01 -2.20E-01
 ene: -2.02E-01 -2.02E-01 -1.61E-01 -1.61E-01 -1.38E-01 -1.38E-01 -1.20E-01 -1.20E-01
 ene:  2.38E-02
 vtowfk : number of one-way 3D ffts skipped in vtowfk until now =40
     eigenvalues (hartree) for   17  bands
              after    2 non-SCF iterations with    4 CG line minimizations
 -7.4450E-01 -7.4449E-01 -7.0604E-01 -7.0603E-01 -2.7543E-01 -2.7542E-01
 -2.1968E-01 -2.1968E-01 -2.0239E-01 -2.0239E-01 -1.6079E-01 -1.6076E-01
 -1.3797E-01 -1.3797E-01 -1.1991E-01 -1.1983E-01  2.3821E-02
 Total charge density [el/Bohr^3]
      Maximum=    9.0119E-01  at reduced coord.    0.3556    0.0000    0.7333
      Minimum=    3.9799E-04  at reduced coord.    0.0000    0.0000    0.0000
   Integrated=    3.2000E+01
 ETOT  5  -74.535481355493    -1.171E-03 1.331E-03 8.187E-01
 scprqt: <Vxc>= -4.0856298E-01 hartree

 Pulay update with  4 previous iterations:
 mixing of old trial potential : alpha(m:m-4)=  0.738      0.306     -0.166E-01 -0.243E-01 -0.366E-02
 scfcv: previous iteration took 01 [s]

 ITER STEP NUMBER     6
 vtorho : nnsclo_now=1, note that nnsclo,dbl_nnsclo,istep=0 0 6
 non-scf iterations; kpt #     1  , k= ( -0.25000  0.50000  0.00000  ), band residuals:
 res:  1.42E-07  1.48E-07  1.42E-07  1.40E-07  2.89E-07  3.43E-07  4.15E-07  3.40E-07
 res:  4.66E-07  4.28E-07  4.55E-07  4.26E-07  5.10E-07  5.61E-07  7.54E-07  3.64E-07
 res:  1.05E-04
 ene: -7.20E-01 -7.20E-01 -7.12E-01 -7.12E-01 -2.58E-01 -2.58E-01 -2.30E-01 -2.30E-01
 ene: -2.03E-01 -2.03E-01 -1.83E-01 -1.83E-01 -1.50E-01 -1.50E-01 -1.42E-01 -1.42E-01
 ene:  2.05E-02
 vtowfk : number of one-way 3D ffts skipped in vtowfk until now =41
     eigenvalues (hartree) for   17  bands
              after    2 non-SCF iterations with    4 CG line minimizations
 -7.1983E-01 -7.1982E-01 -7.1205E-01 -7.1204E-01 -2.5775E-01 -2.5774E-01
 -2.2985E-01 -2.2983E-01 -2.0305E-01 -2.0304E-01 -1.8340E-01 -1.8338E-01
 -1.4967E-01 -1.4965E-01 -1.4237E-01 -1.4235E-01  2.0516E-02
 non-scf iterations; kpt #     2  , k= (  0.50000 -0.25000  0.00000  ), band residuals:
 res:  9.55E-08  9.28E-08  1.06E-07  9.89E-08  2.42E-07  3.30E-07  5.32E-07  5.03E-07
 res:  5.10E-07  5.11E-07  4.07E-07  4.25E-07  7.78E-07  7.87E-07  6.16E-07  5.68E-07
 res:  4.58E-04
 ene: -7.34E-01 -7.34E-01 -7.08E-01 -7.08E-01 -2.51E-01 -2.51E-01 -2.32E-01 -2.32E-01
 ene: -2.13E-01 -2.13E-01 -1.82E-01 -1.82E-01 -1.51E-01 -1.51E-01 -1.16E-01 -1.16E-01
 ene:  2.94E-02
 vtowfk : number of one-way 3D ffts skipped in vtowfk until now =42
     eigenvalues (hartree) for   17  bands
              after    2 non-SCF iterations with    4 CG line minimizations
 -7.3360E-01 -7.3359E-01 -7.0820E-01 -7.0820E-01 -2.5066E-01 -2.5066E-01
 -2.3209E-01 -2.3209E-01 -2.1319E-01 -2.1318E-01 -1.8228E-01 -1.8228E-01
 -1.5128E-01 -1.5128E-01 -1.1561E-01 -1.1561E-01  2.9381E-02
 non-scf iterations; kpt #     3  , k= ( -0.25000 -0.25000  0.25000  ), band residuals:
 res:  1.07E-07  1.67E-07  1.05E-07  1.22E-07  4.48E-07  5.07E-07  3.26E-07  4.23E-07
 res:  6.17E-07  6.42E-07  2.76E-07  9.22E-07  2.87E-07  1.13E-06  8.68E-07  1.60E-06
 res:  8.37E-04
 ene: -7.43E-01 -7.21E-01 -7.09E-01 -7.09E-01 -2.65E-01 -2.50E-01 -2.49E-01 -2.28E-01
 ene: -2.12E-01 -1.94E-01 -1.92E-01 -1.67E-01 -1.53E-01 -1.36E-01 -1.29E-01 -1.07E-01
 ene:  2.75E-02
 vtowfk : number of one-way 3D ffts skipped in vtowfk until now =43
     eigenvalues (hartree) for   17  bands
              after    2 non-SCF iterations with    4 CG line minimizations
 -7.4343E-01 -7.2141E-01 -7.0923E-01 -7.0878E-01 -2.6490E-01 -2.5031E-01
 -2.4888E-01 -2.2777E-01 -2.1227E-01 -1.9372E-01 -1.9236E-01 -1.6737E-01
 -1.5292E-01 -1.3620E-01 -1.2865E-01 -1.0659E-01  2.7515E-02
 non-scf iterations; kpt #     4  , k= ( -0.25000  0.00000  0.00000  ), band residuals:
 res:  8.00E-08  1.40E-07  1.04E-07  9.63E-08  4.02E-07  8.69E-07  2.15E-07  1.24E-06
 res:  8.34E-07  6.74E-07  4.05E-07  6.20E-07  5.07E-07  3.58E-07  1.29E-06  4.18E-06
 res:  2.09E-04
 ene: -7.65E-01 -7.26E-01 -7.04E-01 -7.03E-01 -2.86E-01 -2.65E-01 -2.44E-01 -2.20E-01
 ene: -2.19E-01 -1.90E-01 -1.83E-01 -1.57E-01 -1.29E-01 -1.20E-01 -1.07E-01 -9.31E-02
 ene:  2.45E-02
 vtowfk : number of one-way 3D ffts skipped in vtowfk until now =44
     eigenvalues (hartree) for   17  bands
              after    2 non-SCF iterations with    4 CG line minimizations
 -7.6500E-01 -7.2641E-01 -7.0422E-01 -7.0348E-01 -2.8634E-01 -2.6496E-01
 -2.4373E-01 -2.2014E-01 -2.1948E-01 -1.9034E-01 -1.8258E-01 -1.5661E-01
 -1.2912E-01 -1.1966E-01 -1.0699E-01 -9.3116E-02  2.4457E-02
 non-scf iterations; kpt #     5  , k= (  0.50000  0.50000  0.25000  ), band residuals:
 res:  1.47E-07  1.46E-07  9.29E-08  9.53E-08  2.85E-07  2.81E-07  2.87E-07  2.59E-07
 res:  5.04E-07  5.21E-07  6.50E-07  6.16E-07  8.30E-07  8.12E-07  5.25E-07  1.32E-06
 res:  6.21E-04
 ene: -7.17E-01 -7.17E-01 -7.14E-01 -7.14E-01 -2.69E-01 -2.69E-01 -2.42E-01 -2.42E-01
 ene: -2.02E-01 -2.02E-01 -1.85E-01 -1.85E-01 -1.39E-01 -1.39E-01 -1.14E-01 -1.14E-01
 ene:  1.08E-02
 vtowfk : number of one-way 3D ffts skipped in vtowfk until now =45
     eigenvalues (hartree) for   17  bands
              after    2 non-SCF iterations with    4 CG line minimizations
 -7.1725E-01 -7.1724E-01 -7.1423E-01 -7.1422E-01 -2.6936E-01 -2.6936E-01
 -2.4184E-01 -2.4183E-01 -2.0162E-01 -2.0161E-01 -1.8453E-01 -1.8451E-01
 -1.3877E-01 -1.3875E-01 -1.1449E-01 -1.1447E-01  1.0767E-02
 non-scf iterations; kpt #     6  , k= (  0.00000 -0.25000  0.00000  ), band residuals:
 res:  8.24E-08  1.64E-07  1.10E-07  1.05E-07  4.08E-07  8.99E-07  5.36E-07  5.85E-07
 res:  2.42E-07  2.80E-07  6.74E-07  2.81E-07  5.72E-07  1.43E-06  2.11E-06  2.52E-05
 res:  4.49E-04
 ene: -7.54E-01 -7.13E-01 -7.07E-01 -7.07E-01 -2.72E-01 -2.48E-01 -2.34E-01 -2.33E-01
 ene: -2.33E-01 -2.13E-01 -1.73E-01 -1.57E-01 -1.57E-01 -1.30E-01 -1.30E-01 -9.97E-02
 ene:  3.08E-02
 vtowfk : number of one-way 3D ffts skipped in vtowfk until now =46
     eigenvalues (hartree) for   17  bands
              after    2 non-SCF iterations with    4 CG line minimizations
 -7.5382E-01 -7.1319E-01 -7.0695E-01 -7.0694E-01 -2.7237E-01 -2.4839E-01
 -2.3350E-01 -2.3350E-01 -2.3271E-01 -2.1303E-01 -1.7347E-01 -1.5698E-01
 -1.5697E-01 -1.3018E-01 -1.3017E-01 -9.9679E-02  3.0799E-02
 non-scf iterations; kpt #     7  , k= (  0.50000 -0.25000  0.50000  ), band residuals:
 res:  1.68E-07  1.71E-07  1.01E-07  1.05E-07  6.05E-07  5.25E-07  6.02E-07  6.06E-07
 res:  7.36E-07  7.28E-07  8.32E-07  9.82E-07  6.91E-07  8.27E-07  1.07E-06  7.59E-07
 res:  1.79E-04
 ene: -7.30E-01 -7.30E-01 -7.11E-01 -7.11E-01 -2.64E-01 -2.64E-01 -2.55E-01 -2.55E-01
 ene: -1.84E-01 -1.84E-01 -1.48E-01 -1.48E-01 -1.44E-01 -1.44E-01 -1.35E-01 -1.35E-01
 ene:  4.78E-02
 vtowfk : number of one-way 3D ffts skipped in vtowfk until now =47
     eigenvalues (hartree) for   17  bands
              after    2 non-SCF iterations with    4 CG line minimizations
 -7.3021E-01 -7.3020E-01 -7.1138E-01 -7.1137E-01 -2.6414E-01 -2.6413E-01
 -2.5508E-01 -2.5508E-01 -1.8426E-01 -1.8425E-01 -1.4783E-01 -1.4783E-01
 -1.4439E-01 -1.4437E-01 -1.3515E-01 -1.3514E-01  4.7823E-02
 non-scf iterations; kpt #     8  , k= (  0.50000  0.00000  0.25000  ), band residuals:
 res:  1.45E-07  1.61E-07  9.79E-08  9.15E-08  7.50E-07  5.38E-07  1.06E-06  5.47E-07
 res:  4.54E-07  5.76E-07  6.44E-07  1.70E-06  2.42E-07  4.89E-07  1.79E-06  1.26E-05
 res:  2.66E-04
 ene: -7.45E-01 -7.45E-01 -7.06E-01 -7.06E-01 -2.76E-01 -2.76E-01 -2.21E-01 -2.21E-01
 ene: -2.03E-01 -2.03E-01 -1.61E-01 -1.61E-01 -1.38E-01 -1.38E-01 -1.20E-01 -1.20E-01
 ene:  2.04E-02
 vtowfk : number of one-way 3D ffts skipped in vtowfk until now =48
     eigenvalues (hartree) for   17  bands
              after    2 non-SCF iterations with    4 CG line minimizations
 -7.4480E-01 -7.4480E-01 -7.0628E-01 -7.0627E-01 -2.7614E-01 -2.7612E-01
 -2.2063E-01 -2.2063E-01 -2.0277E-01 -2.0277E-01 -1.6128E-01 -1.6126E-01
 -1.3837E-01 -1.3837E-01 -1.2024E-01 -1.2022E-01  2.0435E-02
 Total charge density [el/Bohr^3]
      Maximum=    9.0365E-01  at reduced coord.    0.3556    0.0000    0.7333
      Minimum=    3.9970E-04  at reduced coord.    0.0000    0.0000    0.0000
   Integrated=    3.2000E+01
 ETOT  6  -74.535659628424    -1.783E-04 8.371E-04 3.363E-01
 scprqt: <Vxc>= -4.0827117E-01 hartree

 Pulay update with  5 previous iterations:
 mixing of old trial potential : alpha(m:m-4)=   1.18     -0.166     -0.409E-02  0.169E-01 -0.224E-01
 scfcv: previous iteration took 01 [s]

 ITER STEP NUMBER     7
 vtorho : nnsclo_now=1, note that nnsclo,dbl_nnsclo,istep=0 0 7
 non-scf iterations; kpt #     1  , k= ( -0.25000  0.50000  0.00000  ), band residuals:
 res:  1.17E-07  1.17E-07  1.71E-07  1.74E-07  5.01E-07  5.28E-07  6.68E-07  6.62E-07
 res:  6.89E-07  6.83E-07  8.23E-07  8.34E-07  1.23E-06  1.21E-06  9.69E-07  1.38E-06
 res:  1.04E-04
 ene: -7.19E-01 -7.19E-01 -7.11E-01 -7.11E-01 -2.57E-01 -2.57E-01 -2.29E-01 -2.29E-01
 ene: -2.02E-01 -2.02E-01 -1.83E-01 -1.83E-01 -1.49E-01 -1.49E-01 -1.41E-01 -1.41E-01
 ene:  1.95E-02
 vtowfk : number of one-way 3D ffts skipped in vtowfk until now =49
     eigenvalues (hartree) for   17  bands
              after    2 non-SCF iterations with    4 CG line minimizations
 -7.1860E-01 -7.1859E-01 -7.1080E-01 -7.1079E-01 -2.5707E-01 -2.5706E-01
 -2.2916E-01 -2.2914E-01 -2.0225E-01 -2.0224E-01 -1.8260E-01 -1.8258E-01
 -1.4870E-01 -1.4868E-01 -1.4131E-01 -1.4129E-01  1.9538E-02
 non-scf iterations; kpt #     2  , k= (  0.50000 -0.25000  0.00000  ), band residuals:
 res:  6.63E-08  6.60E-08  1.63E-07  1.64E-07  4.98E-07  5.36E-07  6.60E-07  6.38E-07
 res:  7.88E-07  8.02E-07  8.24E-07  7.66E-07  9.48E-07  9.66E-07  4.83E-07  1.36E-06
 res:  4.92E-04
 ene: -7.32E-01 -7.32E-01 -7.07E-01 -7.07E-01 -2.50E-01 -2.50E-01 -2.31E-01 -2.31E-01
 ene: -2.12E-01 -2.12E-01 -1.81E-01 -1.81E-01 -1.50E-01 -1.50E-01 -1.14E-01 -1.14E-01
 ene:  2.76E-02
 vtowfk : number of one-way 3D ffts skipped in vtowfk until now =50
     eigenvalues (hartree) for   17  bands
              after    2 non-SCF iterations with    4 CG line minimizations
 -7.3239E-01 -7.3238E-01 -7.0695E-01 -7.0695E-01 -2.4993E-01 -2.4992E-01
 -2.3147E-01 -2.3147E-01 -2.1250E-01 -2.1249E-01 -1.8141E-01 -1.8141E-01
 -1.5045E-01 -1.5044E-01 -1.1446E-01 -1.1445E-01  2.7586E-02
 non-scf iterations; kpt #     3  , k= ( -0.25000 -0.25000  0.25000  ), band residuals:
 res:  5.98E-08  1.11E-07  1.14E-07  1.82E-07  5.78E-07  4.47E-07  5.63E-07  5.83E-07
 res:  8.35E-07  5.81E-07  5.12E-07  1.26E-06  8.48E-07  1.32E-06  1.76E-06  1.57E-06
 res:  9.10E-04
 ene: -7.42E-01 -7.20E-01 -7.08E-01 -7.08E-01 -2.64E-01 -2.50E-01 -2.48E-01 -2.27E-01
 ene: -2.12E-01 -1.93E-01 -1.91E-01 -1.67E-01 -1.52E-01 -1.35E-01 -1.28E-01 -1.05E-01
 ene:  2.48E-02
 vtowfk : number of one-way 3D ffts skipped in vtowfk until now =51
     eigenvalues (hartree) for   17  bands
              after    2 non-SCF iterations with    4 CG line minimizations
 -7.4223E-01 -7.2017E-01 -7.0797E-01 -7.0754E-01 -2.6425E-01 -2.4965E-01
 -2.4814E-01 -2.2722E-01 -2.1161E-01 -1.9296E-01 -1.9146E-01 -1.6655E-01
 -1.5188E-01 -1.3532E-01 -1.2763E-01 -1.0534E-01  2.4785E-02
 non-scf iterations; kpt #     4  , k= ( -0.25000  0.00000  0.00000  ), band residuals:
 res:  4.09E-08  1.44E-07  1.17E-07  4.45E-08  5.27E-07  6.46E-07  3.90E-07  6.10E-07
 res:  7.60E-07  7.63E-07  6.94E-07  6.09E-07  1.86E-06  1.66E-06  2.44E-06  3.63E-06
 res:  3.26E-04
 ene: -7.64E-01 -7.25E-01 -7.03E-01 -7.02E-01 -2.86E-01 -2.64E-01 -2.43E-01 -2.20E-01
 ene: -2.19E-01 -1.89E-01 -1.82E-01 -1.56E-01 -1.28E-01 -1.19E-01 -1.06E-01 -9.18E-02
 ene:  2.32E-02
 vtowfk : number of one-way 3D ffts skipped in vtowfk until now =52
     eigenvalues (hartree) for   17  bands
              after    2 non-SCF iterations with    4 CG line minimizations
 -7.6385E-01 -7.2520E-01 -7.0295E-01 -7.0220E-01 -2.8567E-01 -2.6447E-01
 -2.4295E-01 -2.1972E-01 -2.1906E-01 -1.8945E-01 -1.8166E-01 -1.5557E-01
 -1.2808E-01 -1.1855E-01 -1.0584E-01 -9.1823E-02  2.3151E-02
 non-scf iterations; kpt #     5  , k= (  0.50000  0.50000  0.25000  ), band residuals:
 res:  1.99E-07  1.98E-07  9.58E-08  9.56E-08  5.66E-07  5.40E-07  3.95E-07  3.87E-07
 res:  6.41E-07  6.40E-07  7.89E-07  7.82E-07  1.48E-06  1.61E-06  3.64E-07  1.14E-06
 res:  2.84E-04
 ene: -7.16E-01 -7.16E-01 -7.13E-01 -7.13E-01 -2.69E-01 -2.69E-01 -2.41E-01 -2.41E-01
 ene: -2.01E-01 -2.01E-01 -1.84E-01 -1.84E-01 -1.38E-01 -1.38E-01 -1.13E-01 -1.13E-01
 ene:  9.06E-03
 vtowfk : number of one-way 3D ffts skipped in vtowfk until now =53
     eigenvalues (hartree) for   17  bands
              after    2 non-SCF iterations with    4 CG line minimizations
 -7.1602E-01 -7.1601E-01 -7.1298E-01 -7.1296E-01 -2.6864E-01 -2.6863E-01
 -2.4104E-01 -2.4103E-01 -2.0107E-01 -2.0106E-01 -1.8371E-01 -1.8369E-01
 -1.3775E-01 -1.3773E-01 -1.1325E-01 -1.1322E-01  9.0622E-03
 non-scf iterations; kpt #     6  , k= (  0.00000 -0.25000  0.00000  ), band residuals:
 res:  3.95E-08  2.14E-07  1.13E-07  1.10E-07  4.84E-07  6.46E-07  5.30E-07  5.48E-07
 res:  4.51E-07  4.04E-07  1.06E-06  5.67E-07  7.67E-07  2.01E-06  1.19E-06  1.60E-05
 res:  6.67E-04
 ene: -7.53E-01 -7.12E-01 -7.06E-01 -7.06E-01 -2.72E-01 -2.48E-01 -2.33E-01 -2.33E-01
 ene: -2.32E-01 -2.12E-01 -1.73E-01 -1.56E-01 -1.56E-01 -1.29E-01 -1.29E-01 -9.84E-02
 ene:  2.88E-02
 vtowfk : number of one-way 3D ffts skipped in vtowfk until now =54
     eigenvalues (hartree) for   17  bands
              after    2 non-SCF iterations with    4 CG line minimizations
 -7.5265E-01 -7.1195E-01 -7.0569E-01 -7.0568E-01 -2.7168E-01 -2.4792E-01
 -2.3291E-01 -2.3291E-01 -2.3192E-01 -2.1218E-01 -1.7259E-01 -1.5592E-01
 -1.5591E-01 -1.2930E-01 -1.2929E-01 -9.8368E-02  2.8789E-02
 non-scf iterations; kpt #     7  , k= (  0.50000 -0.25000  0.50000  ), band residuals:
 res:  1.08E-07  1.08E-07  1.14E-07  1.14E-07  6.12E-07  6.22E-07  4.82E-07  4.55E-07
 res:  8.99E-07  8.82E-07  8.93E-07  8.83E-07  1.22E-06  9.87E-07  3.36E-07  2.70E-07
 res:  3.62E-04
 ene: -7.29E-01 -7.29E-01 -7.10E-01 -7.10E-01 -2.63E-01 -2.63E-01 -2.54E-01 -2.54E-01
 ene: -1.83E-01 -1.83E-01 -1.47E-01 -1.47E-01 -1.43E-01 -1.43E-01 -1.34E-01 -1.34E-01
 ene:  4.65E-02
 vtowfk : number of one-way 3D ffts skipped in vtowfk until now =55
     eigenvalues (hartree) for   17  bands
              after    2 non-SCF iterations with    4 CG line minimizations
 -7.2900E-01 -7.2899E-01 -7.1013E-01 -7.1012E-01 -2.6349E-01 -2.6348E-01
 -2.5442E-01 -2.5442E-01 -1.8349E-01 -1.8349E-01 -1.4699E-01 -1.4699E-01
[...]
     eigenvalues (hartree) for   17  bands
              after    2 non-SCF iterations with    4 CG line minimizations
 -7.3829E-01 -7.3829E-01 -7.1602E-01 -7.1602E-01 -2.6737E-01 -2.6736E-01
 -2.1569E-01 -2.1569E-01 -2.0284E-01 -2.0284E-01 -1.7439E-01 -1.7439E-01
 -1.5506E-01 -1.5506E-01 -1.3631E-01 -1.3631E-01 -3.0958E-02
 Total charge density [el/Bohr^3]
      Maximum=    8.9420E-01  at reduced coord.    0.7556    0.5333    0.8222
      Minimum=    2.9887E-04  at reduced coord.    0.0000    0.0000    0.0000
   Integrated=    3.2000E+01
 ETOT  3  -74.617241098416    -5.376E-05 1.409E-05 2.252E-04
 scprqt: <Vxc>= -3.7067949E-01 hartree

 At SCF step    3, etot is converged : 
  for the second time, diff in etot=  5.376E-05 < toldfe=  1.000E-04

 Cartesian components of stress tensor (hartree/bohr^3)
  sigma(1 1)=  2.45406039E-04  sigma(3 2)=  0.00000000E+00
  sigma(2 2)= -4.85077075E-04  sigma(3 1)=  0.00000000E+00
  sigma(3 3)=  2.45406039E-04  sigma(2 1)=  0.00000000E+00

 fftdatar_write: About to write data to: RutileGeom2_o_TIM20_DEN with iomode IO_MODE_FORTRAN
 IO operation completed. cpu_time:       0.0 [s], walltime:       0.0 [s]

---OUTPUT-----------------------------------------------------------------------

 Cartesian coordinates (xcart) [bohr]
  1.05879432005540E-19  2.11725034720582E-04  1.11246114440153E-19
  4.67046997469998E+00  3.00798241865510E+00  4.67046997469998E+00
  6.50919273871250E+00  9.72394298975747E-06  2.83174721068745E+00
  2.83174721068745E+00  9.72394298975752E-06  6.50919273871250E+00
  1.83872276401253E+00  3.00818441974682E+00  1.83872276401253E+00
  7.50221718538745E+00  3.00818441974682E+00  7.50221718538744E+00
 Reduced coordinates (xred)
  1.13349869048608E-20  3.51920141170497E-05  1.19095203526385E-20
  5.00000000000000E-01  4.99973750769951E-01  5.00000000000000E-01
  6.96845582347485E-01  1.61627149770242E-06  3.03154417652514E-01
  3.03154417652514E-01  1.61627149770243E-06  6.96845582347485E-01
  1.96845582347486E-01  5.00007326512569E-01  1.96845582347485E-01
  8.03154417652515E-01  5.00007326512569E-01  8.03154417652515E-01
 Cartesian forces (fcart) [Ha/bohr]; max,rms= 2.33555E-05 1.67502E-05 (free atoms)
 -1.12937726317464E-21 -2.33555121029152E-05 -1.68903966730176E-31
 -1.12937726317464E-21  2.33555121029152E-05 -1.26677975047632E-31
  2.20219773882414E-05 -4.45873706171184E-06 -2.20219773882414E-05
 -2.20219773882414E-05 -4.45873706171184E-06  2.20219773882414E-05
  2.20219773882414E-05  4.45873706171184E-06  2.20219773882414E-05
 -2.20219773882414E-05  4.45873706171184E-06 -2.20219773882414E-05
 Reduced forces (fred)
  1.05494451955320E-20  1.40513316301239E-04  1.57772181044202E-30
  1.05494451955320E-20 -1.40513316301239E-04  1.18329135783152E-30
 -2.05705968350606E-04  2.68250136539791E-05  2.05705968350606E-04
  2.05705968350606E-04  2.68250136539792E-05 -2.05705968350606E-04
 -2.05705968350606E-04 -2.68250136539792E-05 -2.05705968350606E-04
  2.05705968350606E-04 -2.68250136539791E-05  2.05705968350606E-04
 Scale of Primitive Cell (acell) [bohr]
  9.34093994939996E+00  6.01628068278156E+00  9.34093994939996E+00
 Real space primitive translations (rprimd) [bohr]
  9.34093994939996E+00  0.00000000000000E+00  0.00000000000000E+00
  0.00000000000000E+00  6.01628068278156E+00  0.00000000000000E+00
  0.00000000000000E+00  0.00000000000000E+00  9.34093994939996E+00
 Unitary Cell Volume (ucvol) [Bohr^3]=  5.24939495835396E+02
 Angles (23,13,12)= [degrees]
  9.00000000000000E+01  9.00000000000000E+01  9.00000000000000E+01
 Lengths [Bohr]
  9.34093994939996E+00  6.01628068278156E+00  9.34093994939996E+00
 Stress tensor in cartesian coordinates (strten) [Ha/bohr^3]
  2.45406038728812E-04  0.00000000000000E+00  0.00000000000000E+00
  0.00000000000000E+00 -4.85077074776772E-04  0.00000000000000E+00
  0.00000000000000E+00  0.00000000000000E+00  2.45406038728815E-04
 Total energy (etotal) [Ha]= -7.46172410984162E+01

 Difference of energy with previous step (new-old):
           Absolute (Ha)=-9.49620E-07
           Relative     =-1.27265E-08

 fconv : WARNING -
  ntime=   20 was not enough Broyd/MD steps to converge gradients: 
  max grad (force/stress) = 1.9117E-04 > tolmxf= 5.0000E-05 ha/bohr (free atoms)


--- !RelaxConvergenceWarning
message: | 
    
     fconv : WARNING -
      ntime=   20 was not enough Broyd/MD steps to converge gradients: 
      max grad (force/stress) = 1.9117E-04 > tolmxf= 5.0000E-05 ha/bohr (free atoms)

...
 Geometry Optimization Precondition:           0
================================================================================

 ----iterations are completed or convergence reached----


 === Gap info ===
  >>>> For spin  1
   Minimum optical gap =   2.1753 [eV], located at k-point      :  -0.2500  0.0000  0.0000
   Fundamental gap     =   2.0896 [eV], Top of valence bands at :  -0.2500  0.0000  0.0000
                                        Bottom of conduction at :  -0.2500 -0.2500  0.2500
 Mean square residual over all n,k,spin=   2.0370E-07; max=  1.4088E-05
  -0.2500  0.5000  0.0000    1  2.23136E-07 kpt; spin; max resid(k); each band:
  8.37E-09 8.37E-09 1.47E-08 1.47E-08 5.66E-08 5.73E-08 8.64E-08 8.65E-08
  9.08E-08 9.09E-08 7.91E-08 7.90E-08 2.23E-07 2.14E-07 1.84E-07 8.07E-08
  8.68E-08
   0.5000 -0.2500  0.0000    1  1.41867E-06 kpt; spin; max resid(k); each band:
  7.92E-09 7.93E-09 1.45E-08 1.47E-08 6.01E-08 6.01E-08 9.08E-08 9.05E-08
  1.15E-07 1.15E-07 8.18E-08 7.74E-08 3.08E-07 3.01E-07 1.24E-07 3.49E-07
  1.42E-06
  -0.2500 -0.2500  0.2500    1  4.07336E-07 kpt; spin; max resid(k); each band:
  7.55E-09 9.71E-09 9.39E-09 1.53E-08 5.59E-08 5.90E-08 8.58E-08 8.21E-08
  1.08E-07 4.65E-08 1.95E-07 1.56E-07 1.38E-08 4.07E-07 2.16E-07 4.21E-08
  3.56E-08
  -0.2500  0.0000  0.0000    1  2.02693E-07 kpt; spin; max resid(k); each band:
  6.89E-09 1.10E-08 4.25E-09 1.26E-08 4.71E-08 8.39E-08 9.70E-08 6.39E-08
  5.87E-08 6.87E-08 8.43E-08 4.61E-08 1.00E-07 2.03E-07 1.76E-07 2.79E-08
  5.14E-08
   0.5000  0.5000  0.2500    1  2.65223E-07 kpt; spin; max resid(k); each band:
  8.13E-09 8.14E-09 1.37E-08 1.37E-08 3.48E-08 3.48E-08 6.10E-08 6.11E-08
  1.22E-07 1.21E-07 9.12E-08 9.15E-08 2.60E-07 2.65E-07 2.39E-08 3.21E-08
  4.26E-08
   0.0000 -0.2500  0.0000    1  4.32477E-07 kpt; spin; max resid(k); each band:
  6.67E-09 1.50E-08 7.98E-09 7.98E-09 3.91E-08 8.40E-08 1.03E-07 1.03E-07
  1.78E-07 4.51E-08 7.09E-08 4.16E-09 4.15E-09 4.07E-07 4.32E-07 7.19E-09
  9.94E-08
   0.5000 -0.2500  0.5000    1  1.40883E-05 kpt; spin; max resid(k); each band:
  1.24E-08 1.09E-08 1.01E-08 1.01E-08 5.96E-08 6.14E-08 7.71E-08 7.72E-08
  1.35E-07 1.35E-07 1.65E-07 1.65E-07 4.38E-07 4.16E-07 1.55E-07 1.55E-07
  1.41E-05
   0.5000  0.0000  0.2500    1  1.83622E-07 kpt; spin; max resid(k); each band:
  1.04E-08 1.11E-08 8.00E-09 8.47E-09 7.77E-08 7.37E-08 5.75E-08 5.77E-08
  6.51E-08 6.50E-08 1.72E-07 1.84E-07 9.15E-08 9.14E-08 1.04E-07 1.22E-07
  5.06E-08

 outwf: write wavefunction to file RutileGeom2_o_WFK, with iomode -1
 outwf with iomode: -1, cpu_time:     0.03[s], walltime:     0.04 [s]
 prteigrs : about to open file RutileGeom2_o_EIG
 Fermi (or HOMO) energy (hartree) =  -0.11283   Average Vxc (hartree)=  -0.37068
 Eigenvalues (hartree) for nkpt=   8  k points:
 kpt#   1, nband= 17, wtk=  0.12500, kpt= -0.2500  0.5000  0.0000 (reduced coord)
  -0.72384   -0.72384   -0.71776   -0.71776   -0.24925   -0.24921   -0.23825   -0.23823
  -0.21233   -0.21231   -0.19691   -0.19690   -0.16055   -0.16054   -0.14970   -0.14969
  -0.03154
 kpt#   2, nband= 17, wtk=  0.12500, kpt=  0.5000 -0.2500  0.0000 (reduced coord)
  -0.73221   -0.73221   -0.71582   -0.71582   -0.24590   -0.24590   -0.23053   -0.23051
  -0.21746   -0.21745   -0.19356   -0.19356   -0.16426   -0.16425   -0.12958   -0.12958
  -0.02684
 kpt#   3, nband= 17, wtk=  0.25000, kpt= -0.2500 -0.2500  0.2500 (reduced coord)
  -0.73869   -0.72401   -0.71704   -0.71605   -0.26409   -0.24309   -0.23907   -0.22980
  -0.21723   -0.19938   -0.19232   -0.18525   -0.16962   -0.15074   -0.14227   -0.12373
  -0.03604
 kpt#   4, nband= 17, wtk=  0.12500, kpt= -0.2500  0.0000  0.0000 (reduced coord)
  -0.75215   -0.72593   -0.71488   -0.71430   -0.28070   -0.25476   -0.23096   -0.21413
  -0.21406   -0.20018   -0.19458   -0.17053   -0.14735   -0.13966   -0.12887   -0.11283
  -0.03289
 kpt#   5, nband= 17, wtk=  0.12500, kpt=  0.5000  0.5000  0.2500 (reduced coord)
  -0.72208   -0.72208   -0.71925   -0.71925   -0.26081   -0.26077   -0.24079   -0.24076
  -0.21119   -0.21118   -0.19709   -0.19709   -0.14962   -0.14961   -0.13144   -0.13143
  -0.03369
 kpt#   6, nband= 17, wtk=  0.06250, kpt=  0.0000 -0.2500  0.0000 (reduced coord)
  -0.74565   -0.71773   -0.71583   -0.71583   -0.27076   -0.24831   -0.22769   -0.22768
  -0.22206   -0.21440   -0.18738   -0.17157   -0.17157   -0.14899   -0.14898   -0.11861
  -0.03478
 kpt#   7, nband= 17, wtk=  0.06250, kpt=  0.5000 -0.2500  0.5000 (reduced coord)
  -0.72976   -0.72976   -0.71823   -0.71823   -0.26438   -0.26436   -0.24212   -0.24210
  -0.19391   -0.19390   -0.16827   -0.16827   -0.15377   -0.15377   -0.15324   -0.15324
  -0.02269
 kpt#   8, nband= 17, wtk=  0.12500, kpt=  0.5000  0.0000  0.2500 (reduced coord)
  -0.73829   -0.73829   -0.71602   -0.71602   -0.26737   -0.26736   -0.21569   -0.21569
  -0.20284   -0.20284   -0.17439   -0.17439   -0.15506   -0.15506   -0.13631   -0.13631
  -0.03096
 Total charge density [el/Bohr^3]
      Maximum=    8.9420E-01  at reduced coord.    0.7556    0.5333    0.8222
 Next maximum=    8.9420E-01  at reduced coord.    0.8222    0.5333    0.7556
      Minimum=    2.9887E-04  at reduced coord.    0.0000    0.0000    0.0000
 Next minimum=    8.7995E-04  at reduced coord.    0.5111    0.5000    0.4889
   Integrated=    3.2000E+01

 Cartesian components of stress tensor (hartree/bohr^3)
  sigma(1 1)=  2.45406039E-04  sigma(3 2)=  0.00000000E+00
  sigma(2 2)= -4.85077075E-04  sigma(3 1)=  0.00000000E+00
  sigma(3 3)=  2.45406039E-04  sigma(2 1)=  0.00000000E+00

-Cartesian components of stress tensor (GPa)         [Pressure= -5.6243E-02 GPa]
- sigma(1 1)=  7.22009372E+00  sigma(3 2)=  0.00000000E+00
- sigma(2 2)= -1.42714579E+01  sigma(3 1)=  0.00000000E+00
- sigma(3 3)=  7.22009372E+00  sigma(2 1)=  0.00000000E+00

== END DATASET(S) ==============================================================
================================================================================
  
 -outvars: echo values of variables after computation  --------
            acell      9.3409399494E+00  6.0162806828E+00  9.3409399494E+00 Bohr
              amu      4.78800000E+01  1.59994000E+01
           diemac      1.20000000E+01
          dilatmx      1.20000000E+00
             ecut      2.00000000E+01 Hartree
           ecutsm      5.00000000E-01 Hartree
           etotal     -7.4617241098E+01
            fcart     -1.1293772632E-21 -2.3355512103E-05 -1.6890396673E-31
                      -1.1293772632E-21  2.3355512103E-05 -1.2667797505E-31
                       2.2021977388E-05 -4.4587370617E-06 -2.2021977388E-05
                      -2.2021977388E-05 -4.4587370617E-06  2.2021977388E-05
                       2.2021977388E-05  4.4587370617E-06  2.2021977388E-05
                      -2.2021977388E-05  4.4587370617E-06 -2.2021977388E-05
-          fftalg         112
           getwfk          -1
           ionmov           2
              ixc          11
              kpt     -2.50000000E-01  5.00000000E-01  0.00000000E+00
                       5.00000000E-01 -2.50000000E-01  0.00000000E+00
                      -2.50000000E-01 -2.50000000E-01  2.50000000E-01
                      -2.50000000E-01  0.00000000E+00  0.00000000E+00
                       5.00000000E-01  5.00000000E-01  2.50000000E-01
                       0.00000000E+00 -2.50000000E-01  0.00000000E+00
                       5.00000000E-01 -2.50000000E-01  5.00000000E-01
                       5.00000000E-01  0.00000000E+00  2.50000000E-01
         kptrlatt        2   -2    2      0    4    0     -2   -2    2
          kptrlen      2.23644000E+01
P           mkmem           8
            natom           6
            nband          17
            ngfft          45      30      45
             nkpt           8
            nstep          20
             nsym           8
            ntime          20
           ntypat           2
              occ      2.000000  2.000000  2.000000  2.000000  2.000000  2.000000
                       2.000000  2.000000  2.000000  2.000000  2.000000  2.000000
                       2.000000  2.000000  2.000000  2.000000  0.000000
          optcell           1
           shiftk      5.00000000E-01  0.00000000E+00  5.00000000E-01
          spgroup         113
           strten      2.4540603873E-04 -4.8507707478E-04  2.4540603873E-04
                       0.0000000000E+00  0.0000000000E+00  0.0000000000E+00
           symrel      1  0  0   0  1  0   0  0  1       1  0  0   0 -1  0   0  0 -1
                      -1  0  0   0  1  0   0  0 -1      -1  0  0   0 -1  0   0  0  1
                       0  0  1   0  1  0   1  0  0       0  0  1   0 -1  0  -1  0  0
                       0  0 -1   0  1  0  -1  0  0       0  0 -1   0 -1  0   1  0  0
            tnons      0.0000000  0.0000000  0.0000000     0.5000000 -0.4999911  0.5000000
                       0.0000000  0.0000000  0.0000000     0.5000000 -0.4999911  0.5000000
                       0.0000000  0.0000000  0.0000000     0.5000000 -0.4999911  0.5000000
                       0.0000000  0.0000000  0.0000000     0.5000000 -0.4999911  0.5000000
           toldfe      1.00000000E-04 Hartree
            typat      1  1  2  2  2  2
              wtk        0.12500    0.12500    0.25000    0.12500    0.12500    0.06250
                         0.06250    0.12500
           xangst      5.6028982276E-20  1.1204006286E-04  5.8868908306E-20
                       2.4715062640E+00  1.5917557398E+00  2.4715062640E+00
                       3.4445164436E+00  5.1456890078E-06  1.4984960844E+00
                       1.4984960844E+00  5.1456890078E-06  3.4445164436E+00
                       9.7301017963E-01  1.5918626342E+00  9.7301017963E-01
                       3.9700023484E+00  1.5918626342E+00  3.9700023484E+00
            xcart      1.0587943201E-19  2.1172503472E-04  1.1124611444E-19
                       4.6704699747E+00  3.0079824187E+00  4.6704699747E+00
                       6.5091927387E+00  9.7239429898E-06  2.8317472107E+00
                       2.8317472107E+00  9.7239429898E-06  6.5091927387E+00
                       1.8387227640E+00  3.0081844197E+00  1.8387227640E+00
                       7.5022171854E+00  3.0081844197E+00  7.5022171854E+00
             xred      1.1334986905E-20  3.5192014117E-05  1.1909520353E-20
                       5.0000000000E-01  4.9997375077E-01  5.0000000000E-01
                       6.9684558235E-01  1.6162714977E-06  3.0315441765E-01
                       3.0315441765E-01  1.6162714977E-06  6.9684558235E-01
                       1.9684558235E-01  5.0000732651E-01  1.9684558235E-01
                       8.0315441765E-01  5.0000732651E-01  8.0315441765E-01
            znucl       22.00000    8.00000

================================================================================
  

================================================================================

 Suggested references for the acknowledgment of ABINIT usage.

 The users of ABINIT have little formal obligations with respect to the ABINIT group
 (those specified in the GNU General Public License, http://www.gnu.org/copyleft/gpl.txt).
 However, it is common practice in the scientific literature,
 to acknowledge the efforts of people that have made the research possible.
 In this spirit, please find below suggested citations of work written by ABINIT developers,
 corresponding to implementations inside of ABINIT that you have used in the present run.
 Note also that it will be of great value to readers of publications presenting these results,
 to read papers enabling them to understand the theoretical formalism and details
 of the ABINIT implementation.
 For information on why they are suggested, see also https://www.abinit.org/about/?text=acknowledgments.
-
- [1] Recent developments in the ABINIT software package.
- Computer Phys. Comm. 205, 106 (2016).
- X.Gonze, F.Jollet, F.Abreu Araujo, D.Adams, B.Amadon, T.Applencourt,
- C.Audouze, J.-M.Beuken, J.Bieder, A.Bokhanchuk, E.Bousquet, F.Bruneval
- D.Caliste, M.Cote, F.Dahm, F.Da Pieve, M.Delaveau, M.Di Gennaro,
- B.Dorado, C.Espejo, G.Geneste, L.Genovese, A.Gerossier, M.Giantomassi,
- Y.Gillet, D.R.Hamann, L.He, G.Jomard, J.Laflamme Janssen, S.Le Roux,
- A.Levitt, A.Lherbier, F.Liu, I.Lukacevic, A.Martin, C.Martins,
- M.J.T.Oliveira, S.Ponce, Y.Pouillon, T.Rangel, G.-M.Rignanese,
- A.H.Romero, B.Rousseau, O.Rubel, A.A.Shukri, M.Stankovski, M.Torrent,
- M.J.Van Setten, B.Van Troeye, M.J.Verstraete, D.Waroquier, J.Wiktor,
- B.Xue, A.Zhou, J.W.Zwanziger.
- Comment : the fourth generic paper describing the ABINIT project.
- Note that a version of this paper, that is not formatted for Computer Phys. Comm. 
- is available at https://www.abinit.org/about/ABINIT16.pdf .
- The licence allows the authors to put it on the Web.
-
- [2] ABINIT : First-principles approach of materials and nanosystem properties.
- Computer Phys. Comm. 180, 2582-2615 (2009).
- X. Gonze, B. Amadon, P.-M. Anglade, J.-M. Beuken, F. Bottin, P. Boulanger, F. Bruneval,
- D. Caliste, R. Caracas, M. Cote, T. Deutsch, L. Genovese, Ph. Ghosez, M. Giantomassi
- S. Goedecker, D.R. Hamann, P. Hermet, F. Jollet, G. Jomard, S. Leroux, M. Mancini, S. Mazevet,
- M.J.T. Oliveira, G. Onida, Y. Pouillon, T. Rangel, G.-M. Rignanese, D. Sangalli, R. Shaltaf,
- M. Torrent, M.J. Verstraete, G. Zerah, J.W. Zwanziger
- Comment : the third generic paper describing the ABINIT project.
- Note that a version of this paper, that is not formatted for Computer Phys. Comm. 
- is available at https://www.abinit.org/about/ABINIT_CPC_v10.pdf .
- The licence allows the authors to put it on the Web.
-
- [3] A brief introduction to the ABINIT software package.
- Z. Kristallogr. 220, 558-562 (2005).
- X. Gonze, G.-M. Rignanese, M. Verstraete, J.-M. Beuken, Y. Pouillon, R. Caracas, F. Jollet,
- M. Torrent, G. Zerah, M. Mikami, Ph. Ghosez, M. Veithen, J.-Y. Raty, V. Olevano, F. Bruneval,
- L. Reining, R. Godby, G. Onida, D.R. Hamann, and D.C. Allan.
- Comment : the second generic paper describing the ABINIT project. Note that this paper
- should be cited especially if you are using the GW part of ABINIT, as several authors
- of this part are not in the list of authors of the first or third paper.
- The .pdf of the latter paper is available at https://www.abinit.org/about/zfk_0505-06_558-562.pdf.
- Note that it should not redistributed (Copyright by Oldenburg Wissenshaftverlag,
- the licence allows the authors to put it on the Web).
-
- And optionally:
-
- [4] First-principles computation of material properties : the ABINIT software project. 
- X. Gonze, J.-M. Beuken, R. Caracas, F. Detraux, M. Fuchs, G.-M. Rignanese, L. Sindic,
- M. Verstraete, G. Zerah, F. Jollet, M. Torrent, A. Roy, M. Mikami, Ph. Ghosez, J.-Y. Raty, D.C. Allan.
- Computational Materials Science 25, 478-492 (2002). http://dx.doi.org/10.1016/S0927-0256(02)00325-7
- Comment : the original paper describing the ABINIT project.

 Calculation completed.
.Delivered   7 WARNINGs and  22 COMMENTs to log file.

--- !FinalSummary
program: abinit
version: 8.6.3
start_datetime: Fri Apr 27 11:07:55 2018
end_datetime: Fri Apr 27 11:11:33 2018
overall_cpu_time:         217.0
overall_wall_time:         218.0
exit_requested_by_user: no 
timelimit: 0
pseudos: 
    Ti  : 9d5151159dba5b2d9be995f71cdbe165
    O   : f9a33d255b992d3a483d25bc79688495
usepaw: 0
mpi_procs: 1
omp_threads: 1
num_warnings: 7
num_comments: 22
...
