
.Version 8.6.3 of ABINIT 
.(sequential version, prepared for a x86_64_linux_gnu5.4 computer) 

.Copyright (C) 1998-2017 ABINIT group . 
 ABINIT comes with ABSOLUTELY NO WARRANTY.
 It is free software, and you are welcome to redistribute it
 under certain conditions (GNU General Public License,
 see ~abinit/COPYING or http://www.gnu.org/copyleft/gpl.txt).

 ABINIT is a project of the Universite Catholique de Louvain,
 Corning Inc. and other collaborators, see ~abinit/doc/developers/contributors.txt .
 Please read ~abinit/doc/users/acknowledgments.html for suggested
 acknowledgments of the ABINIT effort.
 For more information, see https://www.abinit.org .

.Starting date : Fri 27 Apr 2018.
- ( at 11h07 )
  
- input  file    -> RutileGeom2.in
- output file    -> RutileGeom2.out
- root for input  files -> RutileGeom2_i
- root for output files -> RutileGeom2_o


 Symmetries : space group P-4 2_1 m (#113); Bravais tP (primitive tetrag.)
================================================================================
 Values of the parameters that define the memory need of the present run
     intxc =       0    ionmov =       2      iscf =       7    lmnmax =       2
     lnmax =       2     mgfft =      45  mpssoang =       3    mqgrid =    3001
     natom =       6  nloc_mem =       1    nspden =       1   nspinor =       1
    nsppol =       1      nsym =       8    n1xccc =    2501    ntypat =       2
    occopt =       1   xclevel =       2
-    mband =          17        mffmem =           1         mkmem =           8
       mpw =        3122          nfft =       60750          nkpt =           8
================================================================================
P This job should need less than                      27.103 Mbytes of memory.
  Rough estimation (10% accuracy) of disk space for files :
_ WF disk file :      6.481 Mbytes ; DEN or POT disk file :      0.465 Mbytes.
================================================================================

--------------------------------------------------------------------------------
------------- Echo of variables that govern the present computation ------------
--------------------------------------------------------------------------------
-
- outvars: echo of selected default values                                      
-   iomode0 =  0 , fftalg0 =112 , wfoptalg0 =  0
-
- outvars: echo of global parameters not present in the input file              
-  max_nthreads =    0
-
 -outvars: echo values of preprocessed input variables --------
            acell      8.6808000000E+00  5.5911000000E+00  8.6808000000E+00 Bohr
              amu      4.78800000E+01  1.59994000E+01
           diemac      1.20000000E+01
          dilatmx      1.20000000E+00
             ecut      2.00000000E+01 Hartree
           ecutsm      5.00000000E-01 Hartree
-          fftalg         112
           getwfk          -1
           ionmov           2
              ixc          11
              kpt     -2.50000000E-01  5.00000000E-01  0.00000000E+00
                       5.00000000E-01 -2.50000000E-01  0.00000000E+00
                      -2.50000000E-01 -2.50000000E-01  2.50000000E-01
                      -2.50000000E-01  0.00000000E+00  0.00000000E+00
                       5.00000000E-01  5.00000000E-01  2.50000000E-01
                       0.00000000E+00 -2.50000000E-01  0.00000000E+00
                       5.00000000E-01 -2.50000000E-01  5.00000000E-01
                       5.00000000E-01  0.00000000E+00  2.50000000E-01
         kptrlatt        2   -2    2      0    4    0     -2   -2    2
          kptrlen      2.23644000E+01
P           mkmem           8
            natom           6
            nband          17
            ngfft          45      30      45
             nkpt           8
            nstep          20
             nsym           8
            ntime          20
           ntypat           2
              occ      2.000000  2.000000  2.000000  2.000000  2.000000  2.000000
                       2.000000  2.000000  2.000000  2.000000  2.000000  2.000000
                       2.000000  2.000000  2.000000  2.000000  0.000000
          optcell           1
           shiftk      5.00000000E-01  0.00000000E+00  5.00000000E-01
          spgroup         113
           symrel      1  0  0   0  1  0   0  0  1       1  0  0   0 -1  0   0  0 -1
                      -1  0  0   0  1  0   0  0 -1      -1  0  0   0 -1  0   0  0  1
                       0  0  1   0  1  0   1  0  0       0  0  1   0 -1  0  -1  0  0
                       0  0 -1   0  1  0  -1  0  0       0  0 -1   0 -1  0   1  0  0
            tnons      0.0000000  0.0000000  0.0000000     0.5000000 -0.4999911  0.5000000
                       0.0000000  0.0000000  0.0000000     0.5000000 -0.4999911  0.5000000
                       0.0000000  0.0000000  0.0000000     0.5000000 -0.4999911  0.5000000
                       0.0000000  0.0000000  0.0000000     0.5000000 -0.4999911  0.5000000
           toldfe      1.00000000E-04 Hartree
            typat      1  1  2  2  2  2
              wtk        0.12500    0.12500    0.25000    0.12500    0.12500    0.06250
                         0.06250    0.12500
           xangst      0.0000000000E+00  0.0000000000E+00  0.0000000000E+00
                       2.2968407562E+00  1.4793678043E+00  2.2968407562E+00
                       3.1696656440E+00  0.0000000000E+00  1.4240158683E+00
                       1.4240158683E+00  0.0000000000E+00  3.1696656440E+00
                       8.7282488785E-01  1.4793678043E+00  8.7282488785E-01
                       3.7208566245E+00  1.4793678043E+00  3.7208566245E+00
            xcart      0.0000000000E+00  0.0000000000E+00  0.0000000000E+00
                       4.3404000000E+00  2.7956000000E+00  4.3404000000E+00
                       5.9898000000E+00  0.0000000000E+00  2.6910000000E+00
                       2.6910000000E+00  0.0000000000E+00  5.9898000000E+00
                       1.6494000000E+00  2.7956000000E+00  1.6494000000E+00
                       7.0314000000E+00  2.7956000000E+00  7.0314000000E+00
             xred      0.0000000000E+00  0.0000000000E+00  0.0000000000E+00
                       5.0000000000E-01  5.0000894278E-01  5.0000000000E-01
                       6.9000552944E-01  0.0000000000E+00  3.0999447056E-01
                       3.0999447056E-01  0.0000000000E+00  6.9000552944E-01
                       1.9000552944E-01  5.0000894278E-01  1.9000552944E-01
                       8.0999447056E-01  5.0000894278E-01  8.0999447056E-01
            znucl       22.00000    8.00000

================================================================================

 chkinp: Checking input parameters for consistency.

 chkinp: WARNING -
   Chksymbreak=1 . Found potentially symmetry-breaking value of tnons, 
   which is neither a rational fraction in 1/8th nor in 1/12th :
   for the symmetry number    2
   symrel is   1  0  0  0 -1  0  0  0 -1
   tnons is     5.000000E-01   -4.999911E-01    5.000000E-01
   Please, read the description of the input variable chksymbreak,
   then, if you feel confident, you might switch it to zero, or consult with the forum.

 chkinp: WARNING -
   Chksymbreak=1 . Found potentially symmetry-breaking value of tnons, 
   which is neither a rational fraction in 1/8th nor in 1/12th :
   for the symmetry number    4
   symrel is  -1  0  0  0 -1  0  0  0  1
   tnons is     5.000000E-01   -4.999911E-01    5.000000E-01
   Please, read the description of the input variable chksymbreak,
   then, if you feel confident, you might switch it to zero, or consult with the forum.

 chkinp: WARNING -
   Chksymbreak=1 . Found potentially symmetry-breaking value of tnons, 
   which is neither a rational fraction in 1/8th nor in 1/12th :
   for the symmetry number    6
   symrel is   0  0  1  0 -1  0 -1  0  0
   tnons is     5.000000E-01   -4.999911E-01    5.000000E-01
   Please, read the description of the input variable chksymbreak,
   then, if you feel confident, you might switch it to zero, or consult with the forum.

 chkinp: WARNING -
   Chksymbreak=1 . Found potentially symmetry-breaking value of tnons, 
   which is neither a rational fraction in 1/8th nor in 1/12th :
   for the symmetry number    8
   symrel is   0  0 -1  0 -1  0  1  0  0
   tnons is     5.000000E-01   -4.999911E-01    5.000000E-01
   Please, read the description of the input variable chksymbreak,
   then, if you feel confident, you might switch it to zero, or consult with the forum.

================================================================================
== DATASET  1 ==================================================================
-   nproc =    1

 Exchange-correlation functional for the present dataset will be:
  GGA: Perdew-Burke-Ernzerhof functional - ixc=11
 Citation for XC functional:
  J.P.Perdew, K.Burke, M.Ernzerhof, PRL 77, 3865 (1996)

 Real(R)+Recip(G) space primitive vectors, cartesian coordinates (Bohr,Bohr^-1):
 R(1)=  8.6808000  0.0000000  0.0000000  G(1)=  0.1151968  0.0000000  0.0000000
 R(2)=  0.0000000  5.5911000  0.0000000  G(2)=  0.0000000  0.1788557  0.0000000
 R(3)=  0.0000000  0.0000000  8.6808000  G(3)=  0.0000000  0.0000000  0.1151968
 Unit cell volume ucvol=  4.2132455E+02 bohr^3
 Angles (23,13,12)=  9.00000000E+01  9.00000000E+01  9.00000000E+01 degrees

 getcut: wavevector=  0.0000  0.0000  0.0000  ngfft=  45  30  45
         ecut(hartree)=     28.800   => boxcut(ratio)=   2.09813

--- Pseudopotential description ------------------------------------------------
- pspini: atom type   1  psp file is ../../../Psps_for_tests/22ti.pspnc
- pspatm: opening atomic psp file    ../../../Psps_for_tests/22ti.pspnc
-  Troullier-Martins psp for element  Ti        Thu Oct 27 17:33:40 EDT 1994
- 22.00000   4.00000    940714                znucl, zion, pspdat
    1    1    2    0      2001   0.00000      pspcod,pspxc,lmax,lloc,mmax,r2well
    0   5.166   8.509    0   2.4203472        l,e99.0,e99.9,nproj,rcpsp
   0.00000000   0.00000000   0.00000000   0.00000000     rms, ekb1, ekb2, epsatm
    1   2.285   3.944    1   2.9934301        l,e99.0,e99.9,nproj,rcpsp
   0.00000000   0.00000000   0.00000000   0.00000000     rms, ekb1, ekb2, epsatm
    2  20.947  27.069    1   1.9326638        l,e99.0,e99.9,nproj,rcpsp
   0.00000000   0.00000000   0.00000000   0.00000000     rms, ekb1, ekb2, epsatm
    2.82741504495369    0.09256629068341    1.82586447305099   rchrg,fchrg,qchrg
  pspatm : epsatm=   66.67453488
         --- l  ekb(1:nproj) -->
             1    0.915537
             2   -8.015692
 pspatm: atomic psp has been read  and splines computed

- pspini: atom type   2  psp file is ../../../Psps_for_tests/8o.pspnc
- pspatm: opening atomic psp file    ../../../Psps_for_tests/8o.pspnc
-  Troullier-Martins psp for element  O         Thu Oct 27 17:29:57 EDT 1994
-  8.00000   6.00000    940714                znucl, zion, pspdat
    1    1    1    1      2001   0.00000      pspcod,pspxc,lmax,lloc,mmax,r2well
    0   5.480  16.893    1   1.4482335        l,e99.0,e99.9,nproj,rcpsp
   0.00000000   0.00000000   0.00000000   0.00000000     rms, ekb1, ekb2, epsatm
    1  20.911  28.075    0   1.4482335        l,e99.0,e99.9,nproj,rcpsp
   0.00000000   0.00000000   0.00000000   0.00000000     rms, ekb1, ekb2, epsatm
    0.56990156784787    3.95561236318184    0.63894027514378   rchrg,fchrg,qchrg
  pspatm : epsatm=    1.57752239
         --- l  ekb(1:nproj) -->
             0    5.670783
 pspatm: atomic psp has been read  and splines computed

   4.46909310E+03                                ecore*ucvol(ha*bohr**3)
--------------------------------------------------------------------------------

_setup2: Arith. and geom. avg. npw (full set) are    3106.500    3106.483

================================================================================

=== [ionmov= 2] Broyden-Fletcher-Goldfard-Shanno method (forces)            
================================================================================

--- Iteration: ( 1/20) Internal Cycle: (1/1)
--------------------------------------------------------------------------------

---SELF-CONSISTENT-FIELD CONVERGENCE--------------------------------------------

     iter   Etot(hartree)      deltaE(h)  residm     vres2
 ETOT  1  -74.156648803175    -7.416E+01 1.501E-01 4.288E+02
 ETOT  2  -74.368884304837    -2.122E-01 9.440E-03 3.599E+02
 ETOT  3  -74.499979152348    -1.311E-01 3.668E-03 5.733E+01
 ETOT  4  -74.534310294273    -3.433E-02 1.871E-03 1.930E+00
 ETOT  5  -74.535481355493    -1.171E-03 1.331E-03 8.187E-01
 ETOT  6  -74.535659628424    -1.783E-04 8.371E-04 3.363E-01
 ETOT  7  -74.535816358725    -1.567E-04 9.103E-04 5.026E-02
 ETOT  8  -74.535846600342    -3.024E-05 6.476E-04 3.061E-03
 ETOT  9  -74.535849483681    -2.883E-06 6.690E-04 3.101E-04

 At SCF step    9, etot is converged : 
  for the second time, diff in etot=  2.883E-06 < toldfe=  1.000E-04

 Cartesian components of stress tensor (hartree/bohr^3)
  sigma(1 1)= -1.58375824E-03  sigma(3 2)=  0.00000000E+00
  sigma(2 2)= -2.31644168E-03  sigma(3 1)=  0.00000000E+00
  sigma(3 3)= -1.58375824E-03  sigma(2 1)=  0.00000000E+00

 Integrated electronic density in atomic spheres:
 ------------------------------------------------
 Atom  Sphere_radius  Integrated_density
    1        2.00000          1.61525796
    2        2.00000          1.61627360
    3        2.00000          6.23762392
    4        2.00000          6.23762392
    5        2.00000          6.23866250
    6        2.00000          6.23866250

---OUTPUT-----------------------------------------------------------------------

 Cartesian coordinates (xcart) [bohr]
  0.00000000000000E+00  0.00000000000000E+00  0.00000000000000E+00
  4.34040000000000E+00  2.79560000000000E+00  4.34040000000000E+00
  5.98980000000000E+00  0.00000000000000E+00  2.69100000000000E+00
  2.69100000000000E+00  0.00000000000000E+00  5.98980000000000E+00
  1.64940000000000E+00  2.79560000000000E+00  1.64940000000000E+00
  7.03140000000000E+00  2.79560000000000E+00  7.03140000000000E+00
 Reduced coordinates (xred)
  0.00000000000000E+00  0.00000000000000E+00  0.00000000000000E+00
  5.00000000000000E-01  5.00008942784067E-01  5.00000000000000E-01
  6.90005529444291E-01  0.00000000000000E+00  3.09994470555709E-01
  3.09994470555709E-01  0.00000000000000E+00  6.90005529444291E-01
  1.90005529444291E-01  5.00008942784067E-01  1.90005529444291E-01
  8.09994470555709E-01  5.00008942784067E-01  8.09994470555709E-01
 Cartesian forces (fcart) [Ha/bohr]; max,rms= 2.25218E-02 1.50145E-02 (free atoms)
 -0.00000000000000E+00  2.62132799503152E-05 -0.00000000000000E+00
 -0.00000000000000E+00 -2.62132799503152E-05 -0.00000000000000E+00
  2.25217670997430E-02  2.59830600341177E-06 -2.25217670997430E-02
 -2.25217670997430E-02  2.59830600341177E-06  2.25217670997430E-02
  2.25217670997430E-02 -2.59830600341177E-06  2.25217670997430E-02
 -2.25217670997430E-02 -2.59830600341177E-06 -2.25217670997430E-02
 Reduced forces (fred)
 -0.00000000000000E+00 -1.46561069530207E-04 -0.00000000000000E+00
  0.00000000000000E+00  1.46561069530207E-04  0.00000000000000E+00
 -1.95506955839449E-01 -1.45273886956756E-05  1.95506955839449E-01
  1.95506955839449E-01 -1.45273886956756E-05 -1.95506955839449E-01
 -1.95506955839449E-01  1.45273886956756E-05 -1.95506955839449E-01
  1.95506955839449E-01  1.45273886956756E-05  1.95506955839449E-01
 Scale of Primitive Cell (acell) [bohr]
  8.68080000000000E+00  5.59110000000000E+00  8.68080000000000E+00
 Real space primitive translations (rprimd) [bohr]
  8.68080000000000E+00  0.00000000000000E+00  0.00000000000000E+00
  0.00000000000000E+00  5.59110000000000E+00  0.00000000000000E+00
  0.00000000000000E+00  0.00000000000000E+00  8.68080000000000E+00
 Unitary Cell Volume (ucvol) [Bohr^3]=  4.21324545415104E+02
 Angles (23,13,12)= [degrees]
  9.00000000000000E+01  9.00000000000000E+01  9.00000000000000E+01
 Lengths [Bohr]
  8.68080000000000E+00  5.59110000000000E+00  8.68080000000000E+00
 Stress tensor in cartesian coordinates (strten) [Ha/bohr^3]
 -1.58375823888901E-03  0.00000000000000E+00  0.00000000000000E+00
  0.00000000000000E+00 -2.31644167615335E-03  0.00000000000000E+00
  0.00000000000000E+00  0.00000000000000E+00 -1.58375823888901E-03
 Total energy (etotal) [Ha]= -7.45358494836808E+01

--- Iteration: ( 2/20) Internal Cycle: (1/1)
--------------------------------------------------------------------------------

---SELF-CONSISTENT-FIELD CONVERGENCE--------------------------------------------

     iter   Etot(hartree)      deltaE(h)  residm     vres2
 ETOT  1  -70.628532183699    -7.063E+01 7.787E-03 6.848E+03
 ETOT  2  -69.859176626190     7.694E-01 4.149E-02 1.198E+04
 ETOT  3  -73.828133123136    -3.969E+00 3.460E-02 2.203E+03
 ETOT  4  -74.050193823980    -2.221E-01 3.208E-02 1.518E+03
 ETOT  5  -74.504889249632    -4.547E-01 4.818E-02 1.469E+02
 ETOT  6  -74.598337495884    -9.345E-02 2.082E-03 1.247E+01
 ETOT  7  -74.602426777844    -4.089E-03 1.873E-03 1.008E+01
 ETOT  8  -74.606658669477    -4.232E-03 6.061E-04 1.256E-01
 ETOT  9  -74.606312145882     3.465E-04 3.584E-04 1.243E+00
 ETOT 10  -74.606849708162    -5.376E-04 1.028E-04 3.080E-02
 ETOT 11  -74.606868560165    -1.885E-05 1.465E-04 8.382E-03
 ETOT 12  -74.606875451030    -6.891E-06 5.724E-05 7.959E-05

 At SCF step   12, etot is converged : 
  for the second time, diff in etot=  6.891E-06 < toldfe=  1.000E-04

 Cartesian components of stress tensor (hartree/bohr^3)
  sigma(1 1)= -3.92797076E-04  sigma(3 2)=  0.00000000E+00
  sigma(2 2)= -4.63395479E-04  sigma(3 1)=  0.00000000E+00
  sigma(3 3)= -3.92797076E-04  sigma(2 1)=  0.00000000E+00

 Integrated electronic density in atomic spheres:
 ------------------------------------------------
 Atom  Sphere_radius  Integrated_density
    1        2.00000          1.43688949
    2        2.00000          1.46031442
    3        2.00000          6.11377514
    4        2.00000          6.11377514
    5        2.00000          6.11432795
    6        2.00000          6.11432795

---OUTPUT-----------------------------------------------------------------------

 Cartesian coordinates (xcart) [bohr]
  0.00000000000000E+00  2.76508052535634E-05  0.00000000000000E+00
  4.57842571971324E+00  2.94888188334605E+00  4.57842571971324E+00
  6.34203497688720E+00  2.74079601734996E-06  2.81481646253927E+00
  2.81481646253927E+00  2.74079601734996E-06  6.34203497688720E+00
  1.76360925717396E+00  2.94890679335529E+00  1.76360925717396E+00
  7.39324218225251E+00  2.94890679335529E+00  7.39324218225251E+00
 Reduced coordinates (xred)
  0.00000000000000E+00  4.68839404595075E-06  0.00000000000000E+00
  5.00000000000000E-01  5.00004254390021E-01  5.00000000000000E-01
  6.92599963954906E-01  4.64721790597874E-07  3.07400036045095E-01
  3.07400036045095E-01  4.64721790597874E-07  6.92599963954906E-01
  1.92599963954905E-01  5.00008478062277E-01  1.92599963954905E-01
  8.07400036045095E-01  5.00008478062277E-01  8.07400036045095E-01
 Cartesian forces (fcart) [Ha/bohr]; max,rms= 7.50546E-03 5.00364E-03 (free atoms)
 -0.00000000000000E+00  2.08247806098984E-06  2.89120579329468E-19
 -0.00000000000000E+00 -2.08247806098984E-06  2.89120579329468E-19
  7.50546489423232E-03 -4.11398298248527E-06 -7.50546489423233E-03
 -7.50546489423232E-03 -4.11398298248527E-06  7.50546489423232E-03
  7.50546489423232E-03  4.11398298248527E-06  7.50546489423232E-03
 -7.50546489423232E-03  4.11398298248528E-06 -7.50546489423232E-03
 Reduced forces (fred)
 -0.00000000000000E+00 -1.22818591493991E-05 -2.64743419300085E-18
 -0.00000000000000E+00  1.22818591493991E-05 -2.64743419300085E-18
 -6.87264270203161E-02  2.42630933215653E-05  6.87264270203161E-02
  6.87264270203161E-02  2.42630933215653E-05 -6.87264270203161E-02
 -6.87264270203161E-02 -2.42630933215653E-05 -6.87264270203161E-02
  6.87264270203161E-02 -2.42630933215653E-05  6.87264270203161E-02
 Scale of Primitive Cell (acell) [bohr]
  9.15685143942647E+00  5.89771358434446E+00  9.15685143942647E+00
 Real space primitive translations (rprimd) [bohr]
  9.15685143942647E+00  0.00000000000000E+00  0.00000000000000E+00
  0.00000000000000E+00  5.89771358434446E+00  0.00000000000000E+00
  0.00000000000000E+00  0.00000000000000E+00  9.15685143942647E+00
 Unitary Cell Volume (ucvol) [Bohr^3]=  4.94511065658075E+02
 Angles (23,13,12)= [degrees]
  9.00000000000000E+01  9.00000000000000E+01  9.00000000000000E+01
 Lengths [Bohr]
  9.15685143942647E+00  5.89771358434446E+00  9.15685143942647E+00
 Stress tensor in cartesian coordinates (strten) [Ha/bohr^3]
 -3.92797076175951E-04  0.00000000000000E+00  0.00000000000000E+00
  0.00000000000000E+00 -4.63395479325061E-04  0.00000000000000E+00
  0.00000000000000E+00  0.00000000000000E+00 -3.92797076175951E-04
 Total energy (etotal) [Ha]= -7.46068754510297E+01

 Difference of energy with previous step (new-old):
           Absolute (Ha)=-7.10260E-02
           Relative     =-9.52456E-04

--- Iteration: ( 3/20) Internal Cycle: (1/1)
--------------------------------------------------------------------------------

---SELF-CONSISTENT-FIELD CONVERGENCE--------------------------------------------

     iter   Etot(hartree)      deltaE(h)  residm     vres2
 ETOT  1  -74.278290778862    -7.428E+01 7.570E-04 5.752E+02
 ETOT  2  -73.580514658067     6.978E-01 7.118E-04 2.104E+03
 ETOT  3  -74.510362353239    -9.298E-01 4.502E-03 1.881E+02
 ETOT  4  -74.562310226868    -5.195E-02 4.656E-04 9.750E+01
 ETOT  5  -74.596014966908    -3.370E-02 1.015E-03 3.046E+01
 ETOT  6  -74.614522788746    -1.851E-02 6.897E-05 2.932E+00
 ETOT  7  -74.616206827471    -1.684E-03 1.631E-04 8.556E-01
 ETOT  8  -74.616441897465    -2.351E-04 2.190E-05 3.549E-01
 ETOT  9  -74.616553212654    -1.113E-04 5.020E-05 1.154E-01
 ETOT 10  -74.616593432971    -4.022E-05 1.994E-05 4.693E-02
 ETOT 11  -74.616619118488    -2.569E-05 4.713E-05 8.843E-05

 At SCF step   11, etot is converged : 
  for the second time, diff in etot=  2.569E-05 < toldfe=  1.000E-04

 Cartesian components of stress tensor (hartree/bohr^3)
  sigma(1 1)=  7.97462866E-05  sigma(3 2)=  0.00000000E+00
  sigma(2 2)= -5.20207481E-04  sigma(3 1)=  0.00000000E+00
  sigma(3 3)=  7.97462866E-05  sigma(2 1)=  0.00000000E+00

 Integrated electronic density in atomic spheres:
 ------------------------------------------------
 Atom  Sphere_radius  Integrated_density
    1        2.00000          1.39800778
    2        2.00000          1.40301797
    3        2.00000          6.06411301
    4        2.00000          6.06411301
    5        2.00000          6.07336778
    6        2.00000          6.07336778

---OUTPUT-----------------------------------------------------------------------

 Cartesian coordinates (xcart) [bohr]
  0.00000000000000E+00  3.14233469868098E-05  8.41348981674455E-19
  4.66567398832174E+00  3.00507368257695E+00  4.66567398832174E+00
  6.47455786540460E+00 -3.59537690108099E-06  2.85679011123888E+00
  2.85679011123888E+00 -3.59537690108099E-06  6.47455786540460E+00
  1.80888387708286E+00  3.00510870130084E+00  1.80888387708286E+00
  7.52246409956063E+00  3.00510870130084E+00  7.52246409956063E+00
 Reduced coordinates (xred)
  0.00000000000000E+00  5.22842095427506E-06  9.01637130862942E-20
  5.00000000000000E-01  5.00003714363113E-01  5.00000000000000E-01
  6.93850222026928E-01 -5.98222205165446E-07  3.06149777973073E-01
  3.06149777973073E-01 -5.98222205165446E-07  6.93850222026928E-01
  1.93850222026928E-01  5.00009541006272E-01  1.93850222026928E-01
  8.06149777973073E-01  5.00009541006272E-01  8.06149777973073E-01
 Cartesian forces (fcart) [Ha/bohr]; max,rms= 4.62538E-03 3.08359E-03 (free atoms)
 -0.00000000000000E+00 -1.25824514417067E-06 -4.33680868994202E-19
 -0.00000000000000E+00  1.25824514417067E-06 -4.33680868994202E-19
  4.62537858399442E-03  2.68197755549978E-07 -4.62537858399442E-03
 -4.62537858399442E-03  2.68197755549978E-07  4.62537858399442E-03
  4.62537858399442E-03 -2.68197755549978E-07  4.62537858399442E-03
 -4.62537858399442E-03 -2.68197755549978E-07 -4.62537858399442E-03
 Reduced forces (fred)
  0.00000000000000E+00  7.56218256057114E-06  4.04682709939803E-18
 -0.00000000000000E+00 -7.56218256057114E-06  4.04682709939803E-18
 -4.31610170909665E-02 -1.61189605952436E-06  4.31610170909665E-02
  4.31610170909665E-02 -1.61189605952436E-06 -4.31610170909665E-02
 -4.31610170909665E-02  1.61189605952436E-06 -4.31610170909665E-02
  4.31610170909665E-02  1.61189605952436E-06  4.31610170909664E-02
 Scale of Primitive Cell (acell) [bohr]
  9.33134797664349E+00  6.01010271774622E+00  9.33134797664349E+00
 Real space primitive translations (rprimd) [bohr]
  9.33134797664349E+00  0.00000000000000E+00  0.00000000000000E+00
  0.00000000000000E+00  6.01010271774622E+00  0.00000000000000E+00
  0.00000000000000E+00  0.00000000000000E+00  9.33134797664349E+00
 Unitary Cell Volume (ucvol) [Bohr^3]=  5.23324014968553E+02
 Angles (23,13,12)= [degrees]
  9.00000000000000E+01  9.00000000000000E+01  9.00000000000000E+01
 Lengths [Bohr]
  9.33134797664349E+00  6.01010271774622E+00  9.33134797664349E+00
 Stress tensor in cartesian coordinates (strten) [Ha/bohr^3]
  7.97462865585845E-05  0.00000000000000E+00  0.00000000000000E+00
  0.00000000000000E+00 -5.20207480988730E-04  0.00000000000000E+00
  0.00000000000000E+00  0.00000000000000E+00  7.97462865585845E-05
 Total energy (etotal) [Ha]= -7.46166191184884E+01

 Difference of energy with previous step (new-old):
           Absolute (Ha)=-9.74367E-03
           Relative     =-1.30592E-04

--- Iteration: ( 4/20) Internal Cycle: (1/1)
--------------------------------------------------------------------------------

---SELF-CONSISTENT-FIELD CONVERGENCE--------------------------------------------

     iter   Etot(hartree)      deltaE(h)  residm     vres2
 ETOT  1  -74.554924438739    -7.455E+01 5.455E-04 1.048E+02
 ETOT  2  -74.333550589445     2.214E-01 2.386E-04 5.472E+02
 ETOT  3  -74.600912694685    -2.674E-01 1.983E-03 2.210E+01
 ETOT  4  -74.614060754446    -1.315E-02 2.325E-04 1.815E+00
 ETOT  5  -74.612811267628     1.249E-03 9.089E-05 7.465E+00
 ETOT  6  -74.615959538286    -3.148E-03 1.753E-05 1.143E+00
 ETOT  7  -74.616166999849    -2.075E-04 1.624E-05 6.218E-01
 ETOT  8  -74.616163678533     3.321E-06 3.239E-05 6.338E-01
 ETOT  9  -74.616173450064    -9.772E-06 1.589E-05 6.044E-01

 At SCF step    9, etot is converged : 
  for the second time, diff in etot=  9.772E-06 < toldfe=  1.000E-04

 Cartesian components of stress tensor (hartree/bohr^3)
  sigma(1 1)=  2.59824445E-05  sigma(3 2)=  0.00000000E+00
  sigma(2 2)=  6.90311627E-05  sigma(3 1)=  0.00000000E+00
  sigma(3 3)=  2.59824445E-05  sigma(2 1)=  0.00000000E+00

 Integrated electronic density in atomic spheres:
 ------------------------------------------------
 Atom  Sphere_radius  Integrated_density
    1        2.00000          1.37065763
    2        2.00000          1.36107869
    3        2.00000          6.06424103
    4        2.00000          6.06424103
    5        2.00000          6.06295630
    6        2.00000          6.06295630

---OUTPUT-----------------------------------------------------------------------

 Cartesian coordinates (xcart) [bohr]
  0.00000000000000E+00  2.99951971750774E-05 -2.09218362070726E-19
  4.70634260217552E+00  3.03126928105430E+00  4.70634260217552E+00
  6.54055987292993E+00 -4.03432914840977E-06  2.87212533142112E+00
  2.87212533142112E+00 -4.03432914840977E-06  6.54055987292993E+00
  1.83421727075440E+00  3.03130331058062E+00  1.83421727075440E+00
  7.57846793359665E+00  3.03130331058062E+00  7.57846793359665E+00
 Reduced coordinates (xred)
  0.00000000000000E+00  4.94766945171332E-06 -2.22272770764727E-20
  5.00000000000000E-01  5.00003995114616E-01  5.00000000000000E-01
  6.94866526494112E-01 -6.65457438710505E-07  3.05133473505889E-01
  3.05133473505889E-01 -6.65457438710506E-07  6.94866526494112E-01
  1.94866526494111E-01  5.00009608241506E-01  1.94866526494111E-01
  8.05133473505889E-01  5.00009608241506E-01  8.05133473505889E-01
 Cartesian forces (fcart) [Ha/bohr]; max,rms= 2.80929E-03 1.87292E-03 (free atoms)
 -0.00000000000000E+00 -1.50947249964484E-05 -0.00000000000000E+00
 -0.00000000000000E+00  1.50947249964484E-05 -0.00000000000000E+00
  2.80928867596466E-03 -2.95664901812885E-05 -2.80928867596466E-03
 -2.80928867596466E-03 -2.95664901812885E-05  2.80928867596466E-03
  2.80928867596466E-03  2.95664901812885E-05  2.80928867596466E-03
 -2.80928867596466E-03  2.95664901812885E-05 -2.80928867596466E-03
 Reduced forces (fred)
  0.00000000000000E+00  9.15116211765622E-05  0.00000000000000E+00
 -0.00000000000000E+00 -9.15116211765622E-05 -0.00000000000000E+00
 -2.64429499550035E-02  1.79246554649206E-04  2.64429499550035E-02
  2.64429499550035E-02  1.79246554649206E-04 -2.64429499550035E-02
 -2.64429499550035E-02 -1.79246554649206E-04 -2.64429499550035E-02
  2.64429499550035E-02 -1.79246554649206E-04  2.64429499550035E-02
 Scale of Primitive Cell (acell) [bohr]
  9.41268520435105E+00  6.06249012142281E+00  9.41268520435105E+00
 Real space primitive translations (rprimd) [bohr]
  9.41268520435105E+00  0.00000000000000E+00  0.00000000000000E+00
  0.00000000000000E+00  6.06249012142281E+00  0.00000000000000E+00
  0.00000000000000E+00  0.00000000000000E+00  9.41268520435105E+00
 Unitary Cell Volume (ucvol) [Bohr^3]=  5.37128396480987E+02
 Angles (23,13,12)= [degrees]
  9.00000000000000E+01  9.00000000000000E+01  9.00000000000000E+01
 Lengths [Bohr]
  9.41268520435105E+00  6.06249012142281E+00  9.41268520435105E+00
 Stress tensor in cartesian coordinates (strten) [Ha/bohr^3]
  2.59824444924332E-05  0.00000000000000E+00  0.00000000000000E+00
  0.00000000000000E+00  6.90311626899871E-05  0.00000000000000E+00
  0.00000000000000E+00  0.00000000000000E+00  2.59824444924298E-05
 Total energy (etotal) [Ha]= -7.46161734500641E+01

 Difference of energy with previous step (new-old):
           Absolute (Ha)= 4.45668E-04
           Relative     = 5.97279E-06

--- Iteration: ( 5/20) Internal Cycle: (1/1)
--------------------------------------------------------------------------------

---SELF-CONSISTENT-FIELD CONVERGENCE--------------------------------------------

     iter   Etot(hartree)      deltaE(h)  residm     vres2
 ETOT  1  -74.615936649163    -7.462E+01 2.432E+00 2.134E+00
 ETOT  2  -74.612675635289     3.261E-03 1.522E-02 7.687E+00
 ETOT  3  -74.616623385235    -3.948E-03 5.420E-03 1.028E-01
 ETOT  4  -74.616738432906    -1.150E-04 1.046E-03 1.800E-02
 ETOT  5  -74.616738348938     8.397E-08 9.125E-05 1.446E-02
 ETOT  6  -74.616745387669    -7.039E-06 4.522E-04 2.388E-04

 At SCF step    6, etot is converged : 
  for the second time, diff in etot=  7.039E-06 < toldfe=  1.000E-04

 Cartesian components of stress tensor (hartree/bohr^3)
  sigma(1 1)=  7.88481467E-05  sigma(3 2)=  0.00000000E+00
  sigma(2 2)= -6.71591991E-05  sigma(3 1)=  0.00000000E+00
  sigma(3 3)=  7.88481467E-05  sigma(2 1)=  0.00000000E+00

 Integrated electronic density in atomic spheres:
 ------------------------------------------------
 Atom  Sphere_radius  Integrated_density
    1        2.00000          1.39328971
    2        2.00000          1.38350666
    3        2.00000          6.05366070
    4        2.00000          6.05366070
    5        2.00000          6.05045497
    6        2.00000          6.05045497

---OUTPUT-----------------------------------------------------------------------

 Cartesian coordinates (xcart) [bohr]
  0.00000000000000E+00  1.50098735056772E-05 -2.00280177226513E-19
  4.69900180519332E+00  3.02655614637902E+00  4.69900180519332E+00
  6.53283365625841E+00 -3.32083443810301E-05  2.86516995412823E+00
  2.86516995412823E+00 -3.32083443810301E-05  6.53283365625841E+00
  1.83383185106509E+00  3.02660436459690E+00  1.83383185106509E+00
  7.56417175932155E+00  3.02660436459690E+00  7.56417175932155E+00
 Reduced coordinates (xred)
  0.00000000000000E+00  2.47972725418720E-06 -2.13109278874041E-20
  5.00000000000000E-01  5.00006463056813E-01  5.00000000000000E-01
  6.95129936855775E-01 -5.48623121953215E-06  3.04870063144225E-01
  3.04870063144225E-01 -5.48623121953215E-06  6.95129936855775E-01
  1.95129936855775E-01  5.00014429015287E-01  1.95129936855775E-01
  8.04870063144225E-01  5.00014429015287E-01  8.04870063144225E-01
 Cartesian forces (fcart) [Ha/bohr]; max,rms= 1.80058E-03 1.20039E-03 (free atoms)
 -0.00000000000000E+00  4.51348767247785E-06 -0.00000000000000E+00
 -0.00000000000000E+00 -4.51348767247785E-06 -0.00000000000000E+00
  1.80057810095701E-03  5.71431782625476E-06 -1.80057810095701E-03
 -1.80057810095701E-03  5.71431782625476E-06  1.80057810095701E-03
  1.80057810095701E-03 -5.71431782625476E-06  1.80057810095701E-03
 -1.80057810095701E-03 -5.71431782625476E-06 -1.80057810095701E-03
 Reduced forces (fred)
 -0.00000000000000E+00 -2.73202945682556E-05 -0.00000000000000E+00
  0.00000000000000E+00  2.73202945682556E-05  0.00000000000000E+00
 -1.69218394935771E-02 -3.45889603779970E-05  1.69218394935771E-02
  1.69218394935771E-02 -3.45889603779970E-05 -1.69218394935771E-02
 -1.69218394935771E-02  3.45889603779970E-05 -1.69218394935771E-02
  1.69218394935771E-02  3.45889603779970E-05  1.69218394935771E-02
 Scale of Primitive Cell (acell) [bohr]
  9.39800361038664E+00  6.05303405055211E+00  9.39800361038664E+00
 Real space primitive translations (rprimd) [bohr]
  9.39800361038664E+00  0.00000000000000E+00  0.00000000000000E+00
  0.00000000000000E+00  6.05303405055211E+00  0.00000000000000E+00
  0.00000000000000E+00  0.00000000000000E+00  9.39800361038664E+00
 Unitary Cell Volume (ucvol) [Bohr^3]=  5.34618929602597E+02
 Angles (23,13,12)= [degrees]
  9.00000000000000E+01  9.00000000000000E+01  9.00000000000000E+01
 Lengths [Bohr]
  9.39800361038664E+00  6.05303405055211E+00  9.39800361038664E+00
 Stress tensor in cartesian coordinates (strten) [Ha/bohr^3]
  7.88481467396095E-05  0.00000000000000E+00  0.00000000000000E+00
  0.00000000000000E+00 -6.71591990768529E-05  0.00000000000000E+00
  0.00000000000000E+00  0.00000000000000E+00  7.88481467396129E-05
 Total energy (etotal) [Ha]= -7.46167453876690E+01

 Difference of energy with previous step (new-old):
           Absolute (Ha)=-5.71938E-04
           Relative     =-7.66503E-06

--- Iteration: ( 6/20) Internal Cycle: (1/1)
--------------------------------------------------------------------------------

---SELF-CONSISTENT-FIELD CONVERGENCE--------------------------------------------

     iter   Etot(hartree)      deltaE(h)  residm     vres2
 ETOT  1  -74.598484370494    -7.460E+01 1.486E-01 3.147E+01
 ETOT  2  -74.459334982653     1.391E-01 9.524E-03 2.959E+02
 ETOT  3  -74.615567994227    -1.562E-01 8.438E-03 6.368E-01
 ETOT  4  -74.616845925087    -1.278E-03 8.848E-04 2.064E-01
 ETOT  5  -74.616867395675    -2.147E-05 1.481E-04 4.541E-01
 ETOT  6  -74.616997842460    -1.304E-04 5.699E-05 9.497E-02
 ETOT  7  -74.616814414626     1.834E-04 6.828E-05 4.892E-01
 ETOT  8  -74.616914134295    -9.972E-05 3.638E-05 2.669E-01
 ETOT  9  -74.617040050676    -1.259E-04 4.643E-05 4.024E-02
 ETOT 10  -74.617059961689    -1.991E-05 3.592E-05 4.370E-03
 ETOT 11  -74.617062496286    -2.535E-06 4.090E-05 1.156E-03

 At SCF step   11, etot is converged : 
  for the second time, diff in etot=  2.535E-06 < toldfe=  1.000E-04

 Cartesian components of stress tensor (hartree/bohr^3)
  sigma(1 1)=  2.90609247E-04  sigma(3 2)=  0.00000000E+00
  sigma(2 2)= -3.67522997E-04  sigma(3 1)=  0.00000000E+00
  sigma(3 3)=  2.90609247E-04  sigma(2 1)=  0.00000000E+00

 Integrated electronic density in atomic spheres:
 ------------------------------------------------
 Atom  Sphere_radius  Integrated_density
    1        2.00000          1.39189540
    2        2.00000          1.39931615
    3        2.00000          6.06371554
    4        2.00000          6.06371554
    5        2.00000          6.05689784
    6        2.00000          6.05689784

---OUTPUT-----------------------------------------------------------------------

 Cartesian coordinates (xcart) [bohr]
  0.00000000000000E+00  3.98370352916112E-05  0.00000000000000E+00
  4.67878382841328E+00  3.01350916091701E+00  4.67878382841328E+00
  6.50967152294279E+00  3.33730316892170E-06  2.84789613388376E+00
  2.84789613388376E+00  3.33730316892170E-06  6.50967152294279E+00
  1.83088769452951E+00  3.01354566064913E+00  1.83088769452951E+00
  7.52667996229704E+00  3.01354566064913E+00  7.52667996229704E+00
 Reduced coordinates (xred)
  0.00000000000000E+00  6.60977270100634E-06  0.00000000000000E+00
  5.00000000000000E-01  5.00002333011367E-01  5.00000000000000E-01
  6.95658504610847E-01  5.53726330773558E-07  3.04341495389153E-01
  3.04341495389153E-01  5.53726330773558E-07  6.95658504610847E-01
  1.95658504610847E-01  5.00008389057737E-01  1.95658504610847E-01
  8.04341495389153E-01  5.00008389057737E-01  8.04341495389153E-01
 Cartesian forces (fcart) [Ha/bohr]; max,rms= 1.43240E-03 9.54958E-04 (free atoms)
  7.22801448323670E-20  1.31848865220022E-05  3.61400724161835E-20
  7.22801448323670E-20 -1.31848865220022E-05  3.61400724161835E-20
  1.43240389378691E-03  1.01140729013362E-05 -1.43240389378691E-03
 -1.43240389378691E-03  1.01140729013362E-05  1.43240389378691E-03
  1.43240389378691E-03 -1.01140729013362E-05  1.43240389378691E-03
 -1.43240389378691E-03 -1.01140729013362E-05 -1.43240389378691E-03
 Reduced forces (fred)
 -6.76366345514096E-19 -7.94651818530643E-05 -3.38183172757048E-19
 -6.76366345514096E-19  7.94651818530643E-05 -3.38183172757048E-19
 -1.34038163480128E-02 -6.09574182560190E-05  1.34038163480128E-02
  1.34038163480128E-02 -6.09574182560190E-05 -1.34038163480128E-02
 -1.34038163480128E-02  6.09574182560190E-05 -1.34038163480128E-02
  1.34038163480128E-02  6.09574182560190E-05  1.34038163480128E-02
 Scale of Primitive Cell (acell) [bohr]
  9.35756765682655E+00  6.02699019976073E+00  9.35756765682655E+00
 Real space primitive translations (rprimd) [bohr]
  9.35756765682655E+00  0.00000000000000E+00  0.00000000000000E+00
  0.00000000000000E+00  6.02699019976073E+00  0.00000000000000E+00
  0.00000000000000E+00  0.00000000000000E+00  9.35756765682655E+00
 Unitary Cell Volume (ucvol) [Bohr^3]=  5.27747806519863E+02
 Angles (23,13,12)= [degrees]
  9.00000000000000E+01  9.00000000000000E+01  9.00000000000000E+01
 Lengths [Bohr]
  9.35756765682655E+00  6.02699019976073E+00  9.35756765682655E+00
 Stress tensor in cartesian coordinates (strten) [Ha/bohr^3]
  2.90609247472599E-04  0.00000000000000E+00  0.00000000000000E+00
  0.00000000000000E+00 -3.67522997308682E-04  0.00000000000000E+00
  0.00000000000000E+00  0.00000000000000E+00  2.90609247472599E-04
 Total energy (etotal) [Ha]= -7.46170624962863E+01

 Difference of energy with previous step (new-old):
           Absolute (Ha)=-3.17109E-04
           Relative     =-4.24982E-06

--- Iteration: ( 7/20) Internal Cycle: (1/1)
--------------------------------------------------------------------------------

---SELF-CONSISTENT-FIELD CONVERGENCE--------------------------------------------

     iter   Etot(hartree)      deltaE(h)  residm     vres2
 ETOT  1  -74.544936687152    -7.454E+01 1.166E-04 1.187E+02
 ETOT  2  -74.292240954583     2.527E-01 2.533E-04 6.231E+02
 ETOT  3  -74.595612549972    -3.034E-01 2.236E-03 2.830E+01
 ETOT  4  -74.607308602994    -1.170E-02 1.546E-04 1.076E+01
 ETOT  5  -74.607154555197     1.540E-04 2.070E-04 1.421E+01
 ETOT  6  -74.613763172353    -6.609E-03 1.960E-05 2.490E+00
 ETOT  7  -74.614823513369    -1.060E-03 6.049E-05 5.772E-01
 ETOT  8  -74.614956319708    -1.328E-04 2.642E-05 3.333E-01
 ETOT  9  -74.615148033670    -1.917E-04 5.122E-05 2.475E-02
 ETOT 10  -74.615133559813     1.447E-05 1.727E-05 5.970E-02
 ETOT 11  -74.615139957829    -6.398E-06 3.958E-05 3.713E-02

 At SCF step   11, etot is converged : 
  for the second time, diff in etot=  6.398E-06 < toldfe=  1.000E-04

 Cartesian components of stress tensor (hartree/bohr^3)
  sigma(1 1)=  5.35537710E-04  sigma(3 2)=  0.00000000E+00
  sigma(2 2)=  4.82988304E-04  sigma(3 1)=  0.00000000E+00
  sigma(3 3)=  5.35537710E-04  sigma(2 1)=  0.00000000E+00

 Integrated electronic density in atomic spheres:
 ------------------------------------------------
 Atom  Sphere_radius  Integrated_density
    1        2.00000          1.38983613
    2        2.00000          1.38625637
    3        2.00000          6.04541939
    4        2.00000          6.04541939
    5        2.00000          6.04470767
    6        2.00000          6.04470767

---OUTPUT-----------------------------------------------------------------------

 Cartesian coordinates (xcart) [bohr]
 -1.26029214947874E-19 -7.11777384586083E-06 -4.89797572179916E-19
  4.71903320444180E+00  3.03948025995832E+00  4.71903320444180E+00
  6.56065730584191E+00 -5.66656378109498E-05  2.87740910304168E+00
  2.87740910304169E+00 -5.66656378109498E-05  6.56065730584191E+00
  1.84162410140011E+00  3.03952980782229E+00  1.84162410140011E+00
  7.59644230748349E+00  3.03952980782229E+00  7.59644230748349E+00
 Reduced coordinates (xred)
 -1.33532875790372E-20 -1.17091035490682E-06 -5.18959658642466E-20
  5.00000000000000E-01  5.00010113694423E-01  5.00000000000000E-01
  6.95127266710762E-01 -9.32178845761232E-06  3.04872733289238E-01
  3.04872733289238E-01 -9.32178845761232E-06  6.95127266710762E-01
  1.95127266710761E-01  5.00018264572525E-01  1.95127266710761E-01
  8.04872733289238E-01  5.00018264572525E-01  8.04872733289239E-01
 Cartesian forces (fcart) [Ha/bohr]; max,rms= 1.02782E-03 6.85220E-04 (free atoms)
 -0.00000000000000E+00  6.91403769251469E-06 -0.00000000000000E+00
 -0.00000000000000E+00 -6.91403769251469E-06 -0.00000000000000E+00
  1.02781596771314E-03  5.88996753595418E-06 -1.02781596771314E-03
 -1.02781596771314E-03  5.88996753595418E-06  1.02781596771314E-03
  1.02781596771314E-03 -5.88996753595418E-06  1.02781596771314E-03
 -1.02781596771314E-03 -5.88996753595418E-06 -1.02781596771314E-03
 Reduced forces (fred)
 -0.00000000000000E+00 -4.20293120227752E-05 -0.00000000000000E+00
  0.00000000000000E+00  4.20293120227752E-05  0.00000000000000E+00
 -9.70059535938760E-03 -3.58041558900727E-05  9.70059535938760E-03
  9.70059535938760E-03 -3.58041558900727E-05 -9.70059535938760E-03
 -9.70059535938760E-03  3.58041558900727E-05 -9.70059535938760E-03
  9.70059535938760E-03  3.58041558900727E-05  9.70059535938760E-03
 Scale of Primitive Cell (acell) [bohr]
  9.43806640888360E+00  6.07883756090557E+00  9.43806640888360E+00
 Real space primitive translations (rprimd) [bohr]
  9.43806640888360E+00  0.00000000000000E+00  0.00000000000000E+00
  0.00000000000000E+00  6.07883756090557E+00  0.00000000000000E+00
  0.00000000000000E+00  0.00000000000000E+00  9.43806640888360E+00
 Unitary Cell Volume (ucvol) [Bohr^3]=  5.41485206333465E+02
 Angles (23,13,12)= [degrees]
  9.00000000000000E+01  9.00000000000000E+01  9.00000000000000E+01
 Lengths [Bohr]
  9.43806640888360E+00  6.07883756090557E+00  9.43806640888360E+00
 Stress tensor in cartesian coordinates (strten) [Ha/bohr^3]
  5.35537709619558E-04  0.00000000000000E+00  0.00000000000000E+00
  0.00000000000000E+00  4.82988303868831E-04  0.00000000000000E+00
  0.00000000000000E+00  0.00000000000000E+00  5.35537709619558E-04
 Total energy (etotal) [Ha]= -7.46151399578286E+01

 Difference of energy with previous step (new-old):
           Absolute (Ha)= 1.92254E-03
           Relative     = 2.57657E-05

--- Iteration: ( 8/20) Internal Cycle: (1/1)
--------------------------------------------------------------------------------

---SELF-CONSISTENT-FIELD CONVERGENCE--------------------------------------------

     iter   Etot(hartree)      deltaE(h)  residm     vres2
 ETOT  1  -74.532551041493    -7.453E+01 3.241E-01 1.468E+02
 ETOT  2  -73.414235847984     1.118E+00 6.908E-02 2.204E+03
 ETOT  3  -74.612008733228    -1.198E+00 3.887E-01 1.890E+00
 ETOT  4  -74.616170672436    -4.162E-03 4.961E-02 2.270E+00
 ETOT  5  -74.615757420184     4.133E-04 2.314E-03 2.709E+00
 ETOT  6  -74.617040998925    -1.284E-03 6.122E-04 2.706E-01
 ETOT  7  -74.617197459205    -1.565E-04 2.748E-04 4.176E-03
 ETOT  8  -74.617202382963    -4.924E-06 9.190E-05 1.063E-02
 ETOT  9  -74.617203407792    -1.025E-06 1.146E-05 1.061E-02

 At SCF step    9, etot is converged : 
  for the second time, diff in etot=  1.025E-06 < toldfe=  1.000E-04

 Cartesian components of stress tensor (hartree/bohr^3)
  sigma(1 1)=  2.71234974E-04  sigma(3 2)=  0.00000000E+00
  sigma(2 2)= -4.85122551E-04  sigma(3 1)=  0.00000000E+00
  sigma(3 3)=  2.71234974E-04  sigma(2 1)=  0.00000000E+00

 Integrated electronic density in atomic spheres:
 ------------------------------------------------
 Atom  Sphere_radius  Integrated_density
    1        2.00000          1.39968731
    2        2.00000          1.39906789
    3        2.00000          6.06631618
    4        2.00000          6.06631618
    5        2.00000          6.05619670
    6        2.00000          6.05619670

---OUTPUT-----------------------------------------------------------------------

 Cartesian coordinates (xcart) [bohr]
  1.51781913229941E-19  6.83518424603968E-05  1.60357670467150E-19
  4.67213896828036E+00  3.00920077075559E+00  4.67213896828036E+00
  6.50448057293164E+00  3.27851981849049E-05  2.83979736362909E+00
  2.83979736362909E+00  3.27851981849050E-05  6.50448057293164E+00
  1.83234160465127E+00  3.00923633739987E+00  1.83234160465127E+00
  7.51193633190946E+00  3.00923633739987E+00  7.51193633190946E+00
 Reduced coordinates (xred)
  1.62433003663209E-20  1.13570874167811E-05  1.71610553063420E-20
  5.00000000000000E-01  4.99997585696651E-01  5.00000000000000E-01
  6.96092369800131E-01  5.44746634998456E-06  3.03907630199869E-01
  3.03907630199869E-01  5.44746634998457E-06  6.96092369800131E-01
  1.96092369800131E-01  5.00003495317717E-01  1.96092369800131E-01
  8.03907630199869E-01  5.00003495317717E-01  8.03907630199869E-01
 Cartesian forces (fcart) [Ha/bohr]; max,rms= 9.39884E-04 6.26591E-04 (free atoms)
 -0.00000000000000E+00 -2.99539668840644E-06 -0.00000000000000E+00
 -0.00000000000000E+00  2.99539668840644E-06 -0.00000000000000E+00
  9.39884317503664E-04 -2.54114040820406E-06 -9.39884317503664E-04
 -9.39884317503664E-04 -2.54114040820406E-06  9.39884317503664E-04
  9.39884317503664E-04  2.54114040820406E-06  9.39884317503664E-04
 -9.39884317503664E-04  2.54114040820406E-06 -9.39884317503664E-04
 Reduced forces (fred)
  0.00000000000000E+00  1.80275870950706E-05  0.00000000000000E+00
 -0.00000000000000E+00 -1.80275870950706E-05 -0.00000000000000E+00
 -8.78254029096893E-03  1.52936771970838E-05  8.78254029096893E-03
  8.78254029096893E-03  1.52936771970838E-05 -8.78254029096893E-03
 -8.78254029096893E-03 -1.52936771970838E-05 -8.78254029096893E-03
  8.78254029096893E-03 -1.52936771970838E-05  8.78254029096893E-03
 Scale of Primitive Cell (acell) [bohr]
  9.34427793656073E+00  6.01843060214550E+00  9.34427793656073E+00
 Real space primitive translations (rprimd) [bohr]
  9.34427793656073E+00  0.00000000000000E+00  0.00000000000000E+00
  0.00000000000000E+00  6.01843060214550E+00  0.00000000000000E+00
  0.00000000000000E+00  0.00000000000000E+00  9.34427793656073E+00
 Unitary Cell Volume (ucvol) [Bohr^3]=  5.25502458731597E+02
 Angles (23,13,12)= [degrees]
  9.00000000000000E+01  9.00000000000000E+01  9.00000000000000E+01
 Lengths [Bohr]
  9.34427793656073E+00  6.01843060214550E+00  9.34427793656073E+00
 Stress tensor in cartesian coordinates (strten) [Ha/bohr^3]
  2.71234973504796E-04  0.00000000000000E+00  0.00000000000000E+00
  0.00000000000000E+00 -4.85122550865132E-04  0.00000000000000E+00
  0.00000000000000E+00  0.00000000000000E+00  2.71234973504796E-04
 Total energy (etotal) [Ha]= -7.46172034077924E+01

 Difference of energy with previous step (new-old):
           Absolute (Ha)=-2.06345E-03
           Relative     =-2.76542E-05

--- Iteration: ( 9/20) Internal Cycle: (1/1)
--------------------------------------------------------------------------------

---SELF-CONSISTENT-FIELD CONVERGENCE--------------------------------------------

     iter   Etot(hartree)      deltaE(h)  residm     vres2
 ETOT  1  -74.616513564175    -7.462E+01 9.749E-01 1.386E+00
 ETOT  2  -74.612617231275     3.896E-03 6.187E-01 8.768E+00
 ETOT  3  -74.617160274140    -4.543E-03 1.180E+00 2.627E-02
 ETOT  4  -74.617212362862    -5.209E-05 1.280E-02 1.204E-02
 ETOT  5  -74.617214791006    -2.428E-06 3.070E-02 2.492E-02

 At SCF step    5, etot is converged : 
  for the second time, diff in etot=  2.428E-06 < toldfe=  1.000E-04

 Cartesian components of stress tensor (hartree/bohr^3)
  sigma(1 1)=  2.07893430E-04  sigma(3 2)=  0.00000000E+00
  sigma(2 2)= -5.13927935E-04  sigma(3 1)=  0.00000000E+00
  sigma(3 3)=  2.07893430E-04  sigma(2 1)=  0.00000000E+00

 Integrated electronic density in atomic spheres:
 ------------------------------------------------
 Atom  Sphere_radius  Integrated_density
    1        2.00000          1.39320452
    2        2.00000          1.39255718
    3        2.00000          6.06924747
    4        2.00000          6.06924747
    5        2.00000          6.05881372
    6        2.00000          6.05881372

---OUTPUT-----------------------------------------------------------------------

 Cartesian coordinates (xcart) [bohr]
  1.58871731500790E-19  7.04335669223761E-05  1.82638412660215E-19
  4.67004465830829E+00  3.00784976889521E+00  4.67004465830829E+00
  6.50398810732254E+00  3.78069330664164E-05  2.83610120929404E+00
  2.83610120929404E+00  3.78069330664165E-05  6.50398810732254E+00
  1.83394344901425E+00  3.00788239552907E+00  1.83394344901425E+00
  7.50614586760233E+00  3.00788239552907E+00  7.50614586760232E+00
 Reduced coordinates (xred)
  1.70096586997458E-20  1.17082272676452E-05  1.95542469101757E-20
  5.00000000000000E-01  4.99997234556800E-01  5.00000000000000E-01
  6.96351810656838E-01  6.28467624140200E-06  3.03648189343163E-01
  3.03648189343163E-01  6.28467624140201E-06  6.96351810656838E-01
  1.96351810656838E-01  5.00002658107826E-01  1.96351810656838E-01
  8.03648189343163E-01  5.00002658107826E-01  8.03648189343162E-01
 Cartesian forces (fcart) [Ha/bohr]; max,rms= 1.13805E-03 7.58722E-04 (free atoms)
 -0.00000000000000E+00  1.75388297534237E-05 -0.00000000000000E+00
 -0.00000000000000E+00 -1.75388297534237E-05 -0.00000000000000E+00
  1.13804570808006E-03 -4.00223491362843E-06 -1.13804570808006E-03
 -1.13804570808006E-03 -4.00223491362843E-06  1.13804570808006E-03
  1.13804570808006E-03  4.00223491362843E-06  1.13804570808006E-03
 -1.13804570808006E-03  4.00223491362843E-06 -1.13804570808006E-03
 Reduced forces (fred)
 -0.00000000000000E+00 -1.05508913598871E-04 -0.00000000000000E+00
  0.00000000000000E+00  1.05508913598871E-04  0.00000000000000E+00
 -1.06294485598599E-02  2.40763758837432E-05  1.06294485598599E-02
  1.06294485598599E-02  2.40763758837432E-05 -1.06294485598599E-02
 -1.06294485598599E-02 -2.40763758837432E-05 -1.06294485598599E-02
  1.06294485598599E-02 -2.40763758837432E-05  1.06294485598599E-02
 Scale of Primitive Cell (acell) [bohr]
  9.34008931661657E+00  6.01573281012521E+00  9.34008931661657E+00
 Real space primitive translations (rprimd) [bohr]
  9.34008931661657E+00  0.00000000000000E+00  0.00000000000000E+00
  0.00000000000000E+00  6.01573281012521E+00  0.00000000000000E+00
  0.00000000000000E+00  0.00000000000000E+00  9.34008931661657E+00
 Unitary Cell Volume (ucvol) [Bohr^3]=  5.24796098034496E+02
 Angles (23,13,12)= [degrees]
  9.00000000000000E+01  9.00000000000000E+01  9.00000000000000E+01
 Lengths [Bohr]
  9.34008931661657E+00  6.01573281012521E+00  9.34008931661657E+00
 Stress tensor in cartesian coordinates (strten) [Ha/bohr^3]
  2.07893429798930E-04  0.00000000000000E+00  0.00000000000000E+00
  0.00000000000000E+00 -5.13927935143946E-04  0.00000000000000E+00
  0.00000000000000E+00  0.00000000000000E+00  2.07893429798930E-04
 Total energy (etotal) [Ha]= -7.46172147910058E+01

 Difference of energy with previous step (new-old):
           Absolute (Ha)=-1.13832E-05
           Relative     =-1.52555E-07

--- Iteration: (10/20) Internal Cycle: (1/1)
--------------------------------------------------------------------------------

---SELF-CONSISTENT-FIELD CONVERGENCE--------------------------------------------

     iter   Etot(hartree)      deltaE(h)  residm     vres2
 ETOT  1  -74.617077471311    -7.462E+01 2.130E-05 5.135E-01
 ETOT  2  -74.617230058747    -1.526E-04 3.534E-06 1.674E-02
 ETOT  3  -74.617228095069     1.964E-06 6.049E-06 2.019E-02
 ETOT  4  -74.617239197865    -1.110E-05 2.116E-06 4.775E-04

 At SCF step    4, etot is converged : 
  for the second time, diff in etot=  1.110E-05 < toldfe=  1.000E-04

 Cartesian components of stress tensor (hartree/bohr^3)
  sigma(1 1)=  2.13218193E-04  sigma(3 2)=  0.00000000E+00
  sigma(2 2)= -4.94685214E-04  sigma(3 1)=  0.00000000E+00
  sigma(3 3)=  2.13218193E-04  sigma(2 1)=  0.00000000E+00

 Integrated electronic density in atomic spheres:
 ------------------------------------------------
 Atom  Sphere_radius  Integrated_density
    1        2.00000          1.39610559
    2        2.00000          1.39539818
    3        2.00000          6.06432972
    4        2.00000          6.06432972
    5        2.00000          6.06247256
    6        2.00000          6.06247256

---OUTPUT-----------------------------------------------------------------------

 Cartesian coordinates (xcart) [bohr]
  1.48094852646266E-19  9.16497237048848E-05  1.70894501921271E-19
  4.66978605573899E+00  3.00766198990028E+00  4.66978605573899E+00
  6.50846554210241E+00  4.08559454437565E-05  2.83110656937558E+00
  2.83110656937558E+00  4.08559454437566E-05  6.50846554210241E+00
  1.83867948636342E+00  3.00771278367854E+00  1.83867948636342E+00
  7.50089262511457E+00  3.00771278367854E+00  7.50089262511456E+00
 Reduced coordinates (xred)
  1.58567063756875E-20  1.52358493901982E-05  1.82978941520510E-20
  5.00000000000000E-01  4.99993706934677E-01  5.00000000000000E-01
  6.96869777803177E-01  6.79189206810505E-06  3.03130222196824E-01
  3.03130222196824E-01  6.79189206810507E-06  6.96869777803177E-01
  1.96869777803177E-01  5.00002150891999E-01  1.96869777803177E-01
  8.03130222196823E-01  5.00002150891999E-01  8.03130222196823E-01
 Cartesian forces (fcart) [Ha/bohr]; max,rms= 8.96289E-05 5.97623E-05 (free atoms)
 -4.51750905202293E-21 -2.55863786057777E-06 -2.25875452601147E-21
 -4.51750905202293E-21  2.55863786057777E-06 -2.25875452601147E-21
  8.96288939758780E-05 -1.38720566903987E-06 -8.96288939758780E-05
 -8.96288939758780E-05 -1.38720566903987E-06  8.96288939758780E-05
  8.96288939758781E-05  1.38720566903987E-06  8.96288939758781E-05
 -8.96288939758780E-05  1.38720566903987E-06 -8.96288939758781E-05
 Reduced forces (fred)
  4.21916015556227E-20  1.53912293943830E-05  2.10958007778114E-20
  4.21916015556227E-20 -1.53912293943830E-05  2.10958007778114E-20
 -8.37095518559727E-04  8.34459655207317E-06  8.37095518559727E-04
  8.37095518559727E-04  8.34459655207317E-06 -8.37095518559727E-04
 -8.37095518559728E-04 -8.34459655207317E-06 -8.37095518559728E-04
  8.37095518559727E-04 -8.34459655207317E-06  8.37095518559728E-04
 Scale of Primitive Cell (acell) [bohr]
  9.33957211147798E+00  6.01539969040694E+00  9.33957211147798E+00
 Real space primitive translations (rprimd) [bohr]
  9.33957211147798E+00  0.00000000000000E+00  0.00000000000000E+00
  0.00000000000000E+00  6.01539969040694E+00  0.00000000000000E+00
  0.00000000000000E+00  0.00000000000000E+00  9.33957211147798E+00
 Unitary Cell Volume (ucvol) [Bohr^3]=  5.24708921499194E+02
 Angles (23,13,12)= [degrees]
  9.00000000000000E+01  9.00000000000000E+01  9.00000000000000E+01
 Lengths [Bohr]
  9.33957211147798E+00  6.01539969040694E+00  9.33957211147798E+00
 Stress tensor in cartesian coordinates (strten) [Ha/bohr^3]
  2.13218192767085E-04  0.00000000000000E+00  0.00000000000000E+00
  0.00000000000000E+00 -4.94685214057537E-04  0.00000000000000E+00
  0.00000000000000E+00  0.00000000000000E+00  2.13218192767088E-04
 Total energy (etotal) [Ha]= -7.46172391978651E+01

 Difference of energy with previous step (new-old):
           Absolute (Ha)=-2.44069E-05
           Relative     =-3.27094E-07

--- Iteration: (11/20) Internal Cycle: (1/1)
--------------------------------------------------------------------------------

---SELF-CONSISTENT-FIELD CONVERGENCE--------------------------------------------

     iter   Etot(hartree)      deltaE(h)  residm     vres2
 ETOT  1  -74.617199105917    -7.462E+01 3.667E-05 7.463E-02
 ETOT  2  -74.616965827672     2.333E-04 1.123E-05 5.269E-01
 ETOT  3  -74.617236459236    -2.706E-04 2.550E-05 4.820E-03
 ETOT  4  -74.617241113455    -4.654E-06 1.586E-06 1.162E-03
 ETOT  5  -74.617241251028    -1.376E-07 8.317E-06 1.913E-03

 At SCF step    5, etot is converged : 
  for the second time, diff in etot=  1.376E-07 < toldfe=  1.000E-04

 Cartesian components of stress tensor (hartree/bohr^3)
  sigma(1 1)=  2.49037127E-04  sigma(3 2)=  0.00000000E+00
  sigma(2 2)= -4.85506421E-04  sigma(3 1)=  0.00000000E+00
  sigma(3 3)=  2.49037127E-04  sigma(2 1)=  0.00000000E+00

 Integrated electronic density in atomic spheres:
 ------------------------------------------------
 Atom  Sphere_radius  Integrated_density
    1        2.00000          1.39718378
    2        2.00000          1.39648013
    3        2.00000          6.06383625
    4        2.00000          6.06383625
    5        2.00000          6.06197340
    6        2.00000          6.06197340

---OUTPUT-----------------------------------------------------------------------

 Cartesian coordinates (xcart) [bohr]
  1.32926091466319E-19  8.06533785326401E-05  1.53713191014953E-19
  4.67068551136353E+00  3.00825231491192E+00  4.67068551136353E+00
  6.50949059268155E+00  3.82525467847898E-05  2.83188043004551E+00
  2.83188043004551E+00  3.82525467847899E-05  6.50949059268155E+00
  1.83880508131803E+00  3.00829471574367E+00  1.83880508131803E+00
  7.50256594140904E+00  3.00829471574367E+00  7.50256594140904E+00
 Reduced coordinates (xred)
  1.42298267719928E-20  1.34052350445055E-05  1.64550996466125E-20
  5.00000000000000E-01  4.99995537549023E-01  5.00000000000000E-01
  6.96845310698430E-01  6.35787849226341E-06  3.03154689301570E-01
  3.03154689301570E-01  6.35787849226343E-06  6.96845310698430E-01
  1.96845310698431E-01  5.00002584905575E-01  1.96845310698431E-01
  8.03154689301570E-01  5.00002584905575E-01  8.03154689301570E-01
 Cartesian forces (fcart) [Ha/bohr]; max,rms= 8.46084E-05 5.69915E-05 (free atoms)
 -0.00000000000000E+00 -2.41038019531197E-05  2.25875452601147E-21
 -0.00000000000000E+00  2.41038019531197E-05  2.25875452601147E-21
 -8.46084312775252E-05 -2.90755599741199E-06  8.46084312775252E-05
  8.46084312775252E-05 -2.90755599741199E-06 -8.46084312775252E-05
 -8.46084312775252E-05  2.90755599741199E-06 -8.46084312775252E-05
  8.46084312775252E-05  2.90755599741199E-06  8.46084312775252E-05
 Reduced forces (fred)
 -0.00000000000000E+00  1.45021930353811E-04 -2.10998640767371E-20
 -0.00000000000000E+00 -1.45021930353811E-04 -2.10998640767371E-20
  7.90358748214268E-04  1.74934802474974E-05 -7.90358748214268E-04
 -7.90358748214268E-04  1.74934802474974E-05  7.90358748214268E-04
  7.90358748214268E-04 -1.74934802474974E-05  7.90358748214268E-04
 -7.90358748214268E-04 -1.74934802474974E-05 -7.90358748214268E-04
 Scale of Primitive Cell (acell) [bohr]
  9.34137102272706E+00  6.01655832701701E+00  9.34137102272706E+00
 Real space primitive translations (rprimd) [bohr]
  9.34137102272706E+00  0.00000000000000E+00  0.00000000000000E+00
  0.00000000000000E+00  6.01655832701701E+00  0.00000000000000E+00
  0.00000000000000E+00  0.00000000000000E+00  9.34137102272706E+00
 Unitary Cell Volume (ucvol) [Bohr^3]=  5.25012175199340E+02
 Angles (23,13,12)= [degrees]
  9.00000000000000E+01  9.00000000000000E+01  9.00000000000000E+01
 Lengths [Bohr]
  9.34137102272706E+00  6.01655832701701E+00  9.34137102272706E+00
 Stress tensor in cartesian coordinates (strten) [Ha/bohr^3]
  2.49037126948692E-04  0.00000000000000E+00  0.00000000000000E+00
  0.00000000000000E+00 -4.85506420592807E-04  0.00000000000000E+00
  0.00000000000000E+00  0.00000000000000E+00  2.49037126948688E-04
 Total energy (etotal) [Ha]= -7.46172412510284E+01

 Difference of energy with previous step (new-old):
           Absolute (Ha)=-2.05316E-06
           Relative     =-2.75159E-08

--- Iteration: (12/20) Internal Cycle: (1/1)
--------------------------------------------------------------------------------

---SELF-CONSISTENT-FIELD CONVERGENCE--------------------------------------------

     iter   Etot(hartree)      deltaE(h)  residm     vres2
 ETOT  1  -74.617226707977    -7.462E+01 2.689E-04 2.907E-02
 ETOT  2  -74.617141933419     8.477E-05 7.065E-05 1.907E-01
 ETOT  3  -74.617240355060    -9.842E-05 1.318E-06 8.785E-04

 At SCF step    3, etot is converged : 
  for the second time, diff in etot=  9.842E-05 < toldfe=  1.000E-04

 Cartesian components of stress tensor (hartree/bohr^3)
  sigma(1 1)=  2.36746976E-04  sigma(3 2)=  0.00000000E+00
  sigma(2 2)= -4.94709975E-04  sigma(3 1)=  0.00000000E+00
  sigma(3 3)=  2.36746976E-04  sigma(2 1)=  0.00000000E+00

 Integrated electronic density in atomic spheres:
 ------------------------------------------------
 Atom  Sphere_radius  Integrated_density
    1        2.00000          1.39731679
    2        2.00000          1.39661602
    3        2.00000          6.06413410
    4        2.00000          6.06413410
    5        2.00000          6.06226499
    6        2.00000          6.06226499

---OUTPUT-----------------------------------------------------------------------

 Cartesian coordinates (xcart) [bohr]
  1.34556972553935E-19  5.77199084643676E-05  1.60152409772536E-19
  4.67059775432201E+00  3.00821872511564E+00  4.67059775432201E+00
  6.50911457072825E+00  3.51015638965632E-05  2.83208093791578E+00
  2.83208093791578E+00  3.51015638965633E-05  6.50911457072825E+00
  1.83851681640624E+00  3.00824134346021E+00  1.83851681640624E+00
  7.50267869223779E+00  3.00824134346021E+00  7.50267869223779E+00
 Reduced coordinates (xred)
  1.44046843286194E-20  9.59368958813569E-06  1.71447444413658E-20
  5.00000000000000E-01  4.99999349094480E-01  5.00000000000000E-01
  6.96818149743781E-01  5.83426961409037E-06  3.03181850256219E-01
  3.03181850256219E-01  5.83426961409039E-06  6.96818149743781E-01
  1.96818149743781E-01  5.00003108514454E-01  1.96818149743781E-01
  8.03181850256219E-01  5.00003108514454E-01  8.03181850256219E-01
 Cartesian forces (fcart) [Ha/bohr]; max,rms= 1.07263E-04 7.29052E-05 (free atoms)
 -4.51750905202293E-21 -4.25028299992946E-05 -0.00000000000000E+00
 -4.51750905202293E-21  4.25028299992946E-05 -0.00000000000000E+00
  1.07263440600439E-04  2.02813775545028E-06 -1.07263440600439E-04
 -1.07263440600439E-04  2.02813775545028E-06  1.07263440600439E-04
  1.07263440600439E-04 -2.02813775545028E-06  1.07263440600439E-04
 -1.07263440600439E-04 -2.02813775545028E-06 -1.07263440600439E-04
 Reduced forces (fred)
  4.21989352670154E-20  2.55715951042418E-04  0.00000000000000E+00
  4.21989352670154E-20 -2.55715951042418E-04 -0.00000000000000E+00
 -1.00196876957853E-03 -1.22021798310515E-05  1.00196876957853E-03
  1.00196876957853E-03 -1.22021798310515E-05 -1.00196876957853E-03
 -1.00196876957853E-03  1.22021798310515E-05 -1.00196876957853E-03
  1.00196876957853E-03  1.22021798310515E-05  1.00196876957853E-03
 Scale of Primitive Cell (acell) [bohr]
  9.34119550864403E+00  6.01644528250618E+00  9.34119550864403E+00
 Real space primitive translations (rprimd) [bohr]
  9.34119550864403E+00  0.00000000000000E+00  0.00000000000000E+00
  0.00000000000000E+00  6.01644528250618E+00  0.00000000000000E+00
  0.00000000000000E+00  0.00000000000000E+00  9.34119550864403E+00
 Unitary Cell Volume (ucvol) [Bohr^3]=  5.24982582552086E+02
 Angles (23,13,12)= [degrees]
  9.00000000000000E+01  9.00000000000000E+01  9.00000000000000E+01
 Lengths [Bohr]
  9.34119550864403E+00  6.01644528250618E+00  9.34119550864403E+00
 Stress tensor in cartesian coordinates (strten) [Ha/bohr^3]
  2.36746975868139E-04  0.00000000000000E+00  0.00000000000000E+00
  0.00000000000000E+00 -4.94709975219363E-04  0.00000000000000E+00
  0.00000000000000E+00  0.00000000000000E+00  2.36746975868139E-04
 Total energy (etotal) [Ha]= -7.46172403550601E+01

 Difference of energy with previous step (new-old):
           Absolute (Ha)= 8.95968E-07
           Relative     = 1.20075E-08

--- Iteration: (13/20) Internal Cycle: (1/1)
--------------------------------------------------------------------------------

---SELF-CONSISTENT-FIELD CONVERGENCE--------------------------------------------

     iter   Etot(hartree)      deltaE(h)  residm     vres2
 ETOT  1  -74.617236908082    -7.462E+01 2.195E-05 1.270E-02
 ETOT  2  -74.617212108341     2.480E-05 2.594E-06 5.689E-02
 ETOT  3  -74.617241536371    -2.943E-05 1.382E-06 1.310E-04

 At SCF step    3, etot is converged : 
  for the second time, diff in etot=  2.943E-05 < toldfe=  1.000E-04

 Cartesian components of stress tensor (hartree/bohr^3)
  sigma(1 1)=  2.39852626E-04  sigma(3 2)=  0.00000000E+00
  sigma(2 2)= -4.94532672E-04  sigma(3 1)=  0.00000000E+00
  sigma(3 3)=  2.39852626E-04  sigma(2 1)=  0.00000000E+00

 Integrated electronic density in atomic spheres:
 ------------------------------------------------
 Atom  Sphere_radius  Integrated_density
    1        2.00000          1.39643269
    2        2.00000          1.39573107
    3        2.00000          6.06460077
    4        2.00000          6.06460077
    5        2.00000          6.06273460
    6        2.00000          6.06273460

---OUTPUT-----------------------------------------------------------------------

 Cartesian coordinates (xcart) [bohr]
  1.27850256454745E-19  3.33378134219500E-05  1.59329724877550E-19
  4.67066960248699E+00  3.00828938375893E+00  4.67066960248699E+00
  6.50931013198576E+00  3.57140990450412E-05  2.83202907298822E+00
  2.83202907298822E+00  3.57140990450413E-05  6.50931013198576E+00
  1.83864052949877E+00  3.00828700747330E+00  1.83864052949877E+00
  7.50269867547520E+00  3.00828700747330E+00  7.50269867547520E+00
 Reduced coordinates (xred)
  1.36865018654572E-20  5.54102946612367E-06  1.70564114396693E-20
  5.00000000000000E-01  5.00003401754602E-01  5.00000000000000E-01
  6.96828365735799E-01  5.93598844231150E-06  3.03171634264201E-01
  3.03171634264201E-01  5.93598844231151E-06  6.96828365735799E-01
  1.96828365735799E-01  5.00003006795625E-01  1.96828365735799E-01
  8.03171634264201E-01  5.00003006795625E-01  8.03171634264201E-01
 Cartesian forces (fcart) [Ha/bohr]; max,rms= 2.45459E-05 9.43953E-06 (free atoms)
 -0.00000000000000E+00  2.45459289140556E-05 -0.00000000000000E+00
 -0.00000000000000E+00 -2.45459289140556E-05 -0.00000000000000E+00
  6.93312185543270E-06  1.89307655025871E-06 -6.93312185543270E-06
 -6.93312185543270E-06  1.89307655025871E-06  6.93312185543270E-06
  6.93312185543270E-06 -1.89307655025871E-06  6.93312185543270E-06
 -6.93312185543270E-06 -1.89307655025871E-06 -6.93312185543270E-06
 Reduced forces (fred)
 -0.00000000000000E+00 -1.47681509980797E-04 -0.00000000000000E+00
  0.00000000000000E+00  1.47681509980797E-04  0.00000000000000E+00
 -6.47646430010154E-05 -1.13897666871900E-05  6.47646430010154E-05
  6.47646430010154E-05 -1.13897666871900E-05 -6.47646430010154E-05
 -6.47646430010154E-05  1.13897666871900E-05 -6.47646430010154E-05
  6.47646430010154E-05  1.13897666871900E-05  6.47646430010154E-05
 Scale of Primitive Cell (acell) [bohr]
  9.34133920497398E+00  6.01653783394733E+00  9.34133920497398E+00
 Real space primitive translations (rprimd) [bohr]
  9.34133920497398E+00  0.00000000000000E+00  0.00000000000000E+00
  0.00000000000000E+00  6.01653783394733E+00  0.00000000000000E+00
  0.00000000000000E+00  0.00000000000000E+00  9.34133920497398E+00
 Unitary Cell Volume (ucvol) [Bohr^3]=  5.25006810467283E+02
 Angles (23,13,12)= [degrees]
  9.00000000000000E+01  9.00000000000000E+01  9.00000000000000E+01
 Lengths [Bohr]
  9.34133920497398E+00  6.01653783394733E+00  9.34133920497398E+00
 Stress tensor in cartesian coordinates (strten) [Ha/bohr^3]
  2.39852625635688E-04  0.00000000000000E+00  0.00000000000000E+00
  0.00000000000000E+00 -4.94532671786230E-04  0.00000000000000E+00
  0.00000000000000E+00  0.00000000000000E+00  2.39852625635691E-04
 Total energy (etotal) [Ha]= -7.46172415363706E+01

 Difference of energy with previous step (new-old):
           Absolute (Ha)=-1.18131E-06
           Relative     =-1.58316E-08

--- Iteration: (14/20) Internal Cycle: (1/1)
--------------------------------------------------------------------------------

---SELF-CONSISTENT-FIELD CONVERGENCE--------------------------------------------

     iter   Etot(hartree)      deltaE(h)  residm     vres2
 ETOT  1  -74.617230585990    -7.462E+01 1.246E-05 1.900E-02
 ETOT  2  -74.617173163518     5.742E-05 1.170E-06 1.302E-01
 ETOT  3  -74.617240225135    -6.706E-05 6.927E-07 1.027E-03

 At SCF step    3, etot is converged : 
  for the second time, diff in etot=  6.706E-05 < toldfe=  1.000E-04

 Cartesian components of stress tensor (hartree/bohr^3)
  sigma(1 1)=  2.56364688E-04  sigma(3 2)=  0.00000000E+00
  sigma(2 2)= -4.88605830E-04  sigma(3 1)=  0.00000000E+00
  sigma(3 3)=  2.56364688E-04  sigma(2 1)=  0.00000000E+00

 Integrated electronic density in atomic spheres:
 ------------------------------------------------
 Atom  Sphere_radius  Integrated_density
    1        2.00000          1.39537999
    2        2.00000          1.39468299
    3        2.00000          6.06500946
    4        2.00000          6.06500946
    5        2.00000          6.06313746
    6        2.00000          6.06313746

---OUTPUT-----------------------------------------------------------------------

 Cartesian coordinates (xcart) [bohr]
  1.17982384495793E-19  3.82893902634924E-05  1.57372400792121E-19
  4.67111692648342E+00  3.00857254824615E+00  4.67111692648342E+00
  6.50966939602150E+00  3.81596682133583E-05  2.83256445694532E+00
  2.83256445694532E+00  3.81596682133583E-05  6.50966939602150E+00
  1.83855246953809E+00  3.00857267796819E+00  1.83855246953809E+00
  7.50368138342875E+00  3.00857267796819E+00  7.50368138342875E+00
 Reduced coordinates (xred)
  1.26289264808251E-20  6.36341440574479E-06  1.68452645554514E-20
  5.00000000000000E-01  5.00002579369664E-01  5.00000000000000E-01
  6.96800090692893E-01  6.34185555727827E-06  3.03199909307106E-01
  3.03199909307106E-01  6.34185555727828E-06  6.96800090692893E-01
  1.96800090692893E-01  5.00002600928510E-01  1.96800090692893E-01
  8.03199909307107E-01  5.00002600928510E-01  8.03199909307107E-01
 Cartesian forces (fcart) [Ha/bohr]; max,rms= 2.24046E-04 1.49617E-04 (free atoms)
  4.51750905202293E-21  2.56813431787299E-05 -0.00000000000000E+00
  4.51750905202293E-21 -2.56813431787299E-05 -0.00000000000000E+00
  2.24045827293790E-04 -3.33589353853630E-06 -2.24045827293790E-04
 -2.24045827293790E-04 -3.33589353853630E-06  2.24045827293790E-04
  2.24045827293790E-04  3.33589353853630E-06  2.24045827293790E-04
 -2.24045827293790E-04  3.33589353853630E-06 -2.24045827293790E-04
 Reduced forces (fred)
 -4.22036259968928E-20 -1.54527571011773E-04 -0.00000000000000E+00
 -4.22036259968928E-20  1.54527571011773E-04 -0.00000000000000E+00
 -2.09308851236001E-03  2.00724518992771E-05  2.09308851236001E-03
  2.09308851236001E-03  2.00724518992771E-05 -2.09308851236001E-03
 -2.09308851236001E-03 -2.00724518992771E-05 -2.09308851236001E-03
  2.09308851236001E-03 -2.00724518992771E-05  2.09308851236001E-03
 Scale of Primitive Cell (acell) [bohr]
  9.34223385296684E+00  6.01711405576938E+00  9.34223385296684E+00
 Real space primitive translations (rprimd) [bohr]
  9.34223385296684E+00  0.00000000000000E+00  0.00000000000000E+00
  0.00000000000000E+00  6.01711405576938E+00  0.00000000000000E+00
  0.00000000000000E+00  0.00000000000000E+00  9.34223385296684E+00
 Unitary Cell Volume (ucvol) [Bohr^3]=  5.25157669331704E+02
 Angles (23,13,12)= [degrees]
  9.00000000000000E+01  9.00000000000000E+01  9.00000000000000E+01
 Lengths [Bohr]
  9.34223385296684E+00  6.01711405576938E+00  9.34223385296684E+00
 Stress tensor in cartesian coordinates (strten) [Ha/bohr^3]
  2.56364687908132E-04  0.00000000000000E+00  0.00000000000000E+00
  0.00000000000000E+00 -4.88605830034031E-04  0.00000000000000E+00
  0.00000000000000E+00  0.00000000000000E+00  2.56364687908135E-04
 Total energy (etotal) [Ha]= -7.46172402251352E+01

 Difference of energy with previous step (new-old):
           Absolute (Ha)= 1.31124E-06
           Relative     = 1.75728E-08

--- Iteration: (15/20) Internal Cycle: (1/1)
--------------------------------------------------------------------------------

---SELF-CONSISTENT-FIELD CONVERGENCE--------------------------------------------

     iter   Etot(hartree)      deltaE(h)  residm     vres2
 ETOT  1  -74.617240471500    -7.462E+01 3.091E-04 4.626E-03
 ETOT  2  -74.617237415521     3.056E-06 1.441E-05 8.890E-03
 ETOT  3  -74.617241081762    -3.666E-06 4.058E-06 1.388E-03

 At SCF step    3, etot is converged : 
  for the second time, diff in etot=  3.666E-06 < toldfe=  1.000E-04

 Cartesian components of stress tensor (hartree/bohr^3)
  sigma(1 1)=  2.54792704E-04  sigma(3 2)=  0.00000000E+00
  sigma(2 2)= -4.83119958E-04  sigma(3 1)=  0.00000000E+00
  sigma(3 3)=  2.54792704E-04  sigma(2 1)=  0.00000000E+00

 Integrated electronic density in atomic spheres:
 ------------------------------------------------
 Atom  Sphere_radius  Integrated_density
    1        2.00000          1.39702259
    2        2.00000          1.39632053
    3        2.00000          6.06387183
    4        2.00000          6.06387183
    5        2.00000          6.06200568
    6        2.00000          6.06200568

---OUTPUT-----------------------------------------------------------------------

 Cartesian coordinates (xcart) [bohr]
  1.34947845195691E-19  1.06022792746041E-04  1.58074430461063E-19
  4.67084127429466E+00  3.00832727054846E+00  4.67084127429466E+00
  6.50956144339613E+00  3.73722893307768E-05  2.83212110519319E+00
  2.83212110519319E+00  3.73722893307769E-05  6.50956144339613E+00
  1.83872016910147E+00  3.00839592105187E+00  1.83872016910147E+00
  7.50296237948786E+00  3.00839592105187E+00  7.50296237948786E+00
 Reduced coordinates (xred)
  1.44457751046217E-20  1.76212464571837E-05  1.69214089259470E-20
  5.00000000000000E-01  4.99991321537611E-01  5.00000000000000E-01
  6.96829656706663E-01  6.21136553669387E-06  3.03170343293336E-01
  3.03170343293336E-01  6.21136553669389E-06  6.96829656706663E-01
  1.96829656706664E-01  5.00002731418531E-01  1.96829656706664E-01
  8.03170343293337E-01  5.00002731418531E-01  8.03170343293337E-01
 Cartesian forces (fcart) [Ha/bohr]; max,rms= 8.27870E-05 5.55193E-05 (free atoms)
 -0.00000000000000E+00  1.16657320854254E-05  2.25875452601147E-21
 -0.00000000000000E+00 -1.16657320854254E-05  2.25875452601147E-21
 -8.27869799743341E-05 -9.76476992625691E-06  8.27869799743341E-05
  8.27869799743341E-05 -9.76476992625691E-06 -8.27869799743341E-05
 -8.27869799743341E-05  9.76476992625691E-06 -8.27869799743341E-05
  8.27869799743341E-05  9.76476992625691E-06  8.27869799743341E-05
 Reduced forces (fred)
 -0.00000000000000E+00 -7.01898982077784E-05 -2.11005677371885E-20
 -0.00000000000000E+00  7.01898982077784E-05 -2.11005677371885E-20
  7.73369686076651E-04  5.87522670782605E-05 -7.73369686076651E-04
 -7.73369686076651E-04  5.87522670782605E-05  7.73369686076651E-04
  7.73369686076651E-04 -5.87522670782605E-05  7.73369686076651E-04
 -7.73369686076651E-04 -5.87522670782605E-05 -7.73369686076651E-04
 Scale of Primitive Cell (acell) [bohr]
  9.34168254858933E+00  6.01675897352983E+00  9.34168254858933E+00
 Real space primitive translations (rprimd) [bohr]
  9.34168254858933E+00  0.00000000000000E+00  0.00000000000000E+00
  0.00000000000000E+00  6.01675897352983E+00  0.00000000000000E+00
  0.00000000000000E+00  0.00000000000000E+00  9.34168254858933E+00
 Unitary Cell Volume (ucvol) [Bohr^3]=  5.25064702925080E+02
 Angles (23,13,12)= [degrees]
  9.00000000000000E+01  9.00000000000000E+01  9.00000000000000E+01
 Lengths [Bohr]
  9.34168254858933E+00  6.01675897352983E+00  9.34168254858933E+00
 Stress tensor in cartesian coordinates (strten) [Ha/bohr^3]
  2.54792703584448E-04  0.00000000000000E+00  0.00000000000000E+00
  0.00000000000000E+00 -4.83119957872143E-04  0.00000000000000E+00
  0.00000000000000E+00  0.00000000000000E+00  2.54792703584441E-04
 Total energy (etotal) [Ha]= -7.46172410817618E+01

 Difference of energy with previous step (new-old):
           Absolute (Ha)=-8.56627E-07
           Relative     =-1.14803E-08

--- Iteration: (16/20) Internal Cycle: (1/1)
--------------------------------------------------------------------------------

---SELF-CONSISTENT-FIELD CONVERGENCE--------------------------------------------

     iter   Etot(hartree)      deltaE(h)  residm     vres2
 ETOT  1  -74.617088790577    -7.462E+01 1.091E-04 2.669E-01
 ETOT  2  -74.616247056309     8.417E-04 2.913E-06 1.888E+00
 ETOT  3  -74.617220273166    -9.732E-04 6.571E-06 1.278E-02
 ETOT  4  -74.617234325761    -1.405E-05 1.868E-06 3.162E-03
 ETOT  5  -74.617235173228    -8.475E-07 3.823E-07 5.972E-03

 At SCF step    5, etot is converged : 
  for the second time, diff in etot=  8.475E-07 < toldfe=  1.000E-04

 Cartesian components of stress tensor (hartree/bohr^3)
  sigma(1 1)=  2.01349420E-04  sigma(3 2)=  0.00000000E+00
  sigma(2 2)= -4.98710798E-04  sigma(3 1)=  0.00000000E+00
  sigma(3 3)=  2.01349420E-04  sigma(2 1)=  0.00000000E+00

 Integrated electronic density in atomic spheres:
 ------------------------------------------------
 Atom  Sphere_radius  Integrated_density
    1        2.00000          1.39444511
    2        2.00000          1.39373777
    3        2.00000          6.06503019
    4        2.00000          6.06503019
    5        2.00000          6.06317341
    6        2.00000          6.06317341

---OUTPUT-----------------------------------------------------------------------

 Cartesian coordinates (xcart) [bohr]
  0.00000000000000E+00  5.31105561078477E-05  0.00000000000000E+00
  4.66952706248411E+00  3.00753371459378E+00  4.66952706248411E+00
  6.50816767467943E+00  1.18325291216757E-05  2.83088645028879E+00
  2.83088645028879E+00  1.18325291216757E-05  6.50816767467943E+00
  1.83864061219532E+00  3.00757499262077E+00  1.83864061219532E+00
  7.50041351277291E+00  3.00757499262077E+00  7.50041351277291E+00
 Reduced coordinates (xred)
  0.00000000000000E+00  8.82958815622399E-06  0.00000000000000E+00
  5.00000000000000E-01  5.00000113195911E-01  5.00000000000000E-01
  6.96876534560353E-01  1.96714865456823E-06  3.03123465439646E-01
  3.03123465439646E-01  1.96714865456823E-06  6.96876534560353E-01
  1.96876534560354E-01  5.00006975635413E-01  1.96876534560354E-01
  8.03123465439646E-01  5.00006975635413E-01  8.03123465439646E-01
 Cartesian forces (fcart) [Ha/bohr]; max,rms= 1.86495E-04 1.34837E-04 (free atoms)
  4.51750905202293E-21 -1.56530406342592E-04 -0.00000000000000E+00
  4.51750905202293E-21  1.56530406342592E-04 -0.00000000000000E+00
  1.86494510211193E-04 -1.71003107128514E-06 -1.86494510211193E-04
 -1.86494510211193E-04 -1.71003107128514E-06  1.86494510211193E-04
  1.86494510211193E-04  1.71003107128513E-06  1.86494510211193E-04
 -1.86494510211193E-04  1.71003107128513E-06 -1.86494510211193E-04
 Reduced forces (fred)
 -4.21892615468761E-20  9.41540735711695E-04 -0.00000000000000E+00
 -4.21892615468761E-20 -9.41540735711695E-04 -0.00000000000000E+00
 -1.74168232487177E-03  1.02859498711310E-05  1.74168232487177E-03
  1.74168232487177E-03  1.02859498711310E-05 -1.74168232487177E-03
 -1.74168232487177E-03 -1.02859498711310E-05 -1.74168232487177E-03
[...]
 -1.12937726317464E-21 -2.33555121029152E-05 -1.68903966730176E-31
 -1.12937726317464E-21  2.33555121029152E-05 -1.26677975047632E-31
  2.20219773882414E-05 -4.45873706171184E-06 -2.20219773882414E-05
 -2.20219773882414E-05 -4.45873706171184E-06  2.20219773882414E-05
  2.20219773882414E-05  4.45873706171184E-06  2.20219773882414E-05
 -2.20219773882414E-05  4.45873706171184E-06 -2.20219773882414E-05
 Reduced forces (fred)
  1.05494451955320E-20  1.40513316301239E-04  1.57772181044202E-30
  1.05494451955320E-20 -1.40513316301239E-04  1.18329135783152E-30
 -2.05705968350606E-04  2.68250136539791E-05  2.05705968350606E-04
  2.05705968350606E-04  2.68250136539792E-05 -2.05705968350606E-04
 -2.05705968350606E-04 -2.68250136539792E-05 -2.05705968350606E-04
  2.05705968350606E-04 -2.68250136539791E-05  2.05705968350606E-04
 Scale of Primitive Cell (acell) [bohr]
  9.34093994939996E+00  6.01628068278156E+00  9.34093994939996E+00
 Real space primitive translations (rprimd) [bohr]
  9.34093994939996E+00  0.00000000000000E+00  0.00000000000000E+00
  0.00000000000000E+00  6.01628068278156E+00  0.00000000000000E+00
  0.00000000000000E+00  0.00000000000000E+00  9.34093994939996E+00
 Unitary Cell Volume (ucvol) [Bohr^3]=  5.24939495835396E+02
 Angles (23,13,12)= [degrees]
  9.00000000000000E+01  9.00000000000000E+01  9.00000000000000E+01
 Lengths [Bohr]
  9.34093994939996E+00  6.01628068278156E+00  9.34093994939996E+00
 Stress tensor in cartesian coordinates (strten) [Ha/bohr^3]
  2.45406038728812E-04  0.00000000000000E+00  0.00000000000000E+00
  0.00000000000000E+00 -4.85077074776772E-04  0.00000000000000E+00
  0.00000000000000E+00  0.00000000000000E+00  2.45406038728815E-04
 Total energy (etotal) [Ha]= -7.46172410984162E+01

 Difference of energy with previous step (new-old):
           Absolute (Ha)=-9.49620E-07
           Relative     =-1.27265E-08

 fconv : WARNING -
  ntime=   20 was not enough Broyd/MD steps to converge gradients: 
  max grad (force/stress) = 1.9117E-04 > tolmxf= 5.0000E-05 ha/bohr (free atoms)

================================================================================

 ----iterations are completed or convergence reached----

 Mean square residual over all n,k,spin=   2.0370E-07; max=  1.4088E-05
 reduced coordinates (array xred) for    6 atoms
       0.000000000000      0.000035192014      0.000000000000
       0.500000000000      0.499973750770      0.500000000000
       0.696845582347      0.000001616271      0.303154417653
       0.303154417653      0.000001616271      0.696845582347
       0.196845582347      0.500007326513      0.196845582347
       0.803154417653      0.500007326513      0.803154417653
 rms dE/dt=  1.4547E-04; max dE/dt=  2.0571E-04; dE/dt below (all hartree)
    1       0.000000000000      0.000140513316      0.000000000000
    2       0.000000000000     -0.000140513316      0.000000000000
    3      -0.000205705968      0.000026825014      0.000205705968
    4       0.000205705968      0.000026825014     -0.000205705968
    5      -0.000205705968     -0.000026825014     -0.000205705968
    6       0.000205705968     -0.000026825014      0.000205705968

 cartesian coordinates (angstrom) at end:
    1      0.00000000000000     0.00011204006286     0.00000000000000
    2      2.47150626401514     1.59175573979170     2.47150626401514
    3      3.44451644364618     0.00000514568901     1.49849608438410
    4      1.49849608438410     0.00000514568901     3.44451644364618
    5      0.97301017963104     1.59186263416555     0.97301017963104
    6      3.97000234839925     1.59186263416555     3.97000234839925

 cartesian forces (hartree/bohr) at end:
    1     -0.00000000000000    -0.00002335551210    -0.00000000000000
    2     -0.00000000000000     0.00002335551210    -0.00000000000000
    3      0.00002202197739    -0.00000445873706    -0.00002202197739
    4     -0.00002202197739    -0.00000445873706     0.00002202197739
    5      0.00002202197739     0.00000445873706     0.00002202197739
    6     -0.00002202197739     0.00000445873706    -0.00002202197739
 frms,max,avg= 1.6750159E-05 2.3355512E-05   0.000E+00  0.000E+00  0.000E+00 h/b

 cartesian forces (eV/Angstrom) at end:
    1     -0.00000000000000    -0.00120098861924    -0.00000000000000
    2     -0.00000000000000     0.00120098861924    -0.00000000000000
    3      0.00113241551288    -0.00022927745894    -0.00113241551288
    4     -0.00113241551288    -0.00022927745894     0.00113241551288
    5      0.00113241551288     0.00022927745894     0.00113241551288
    6     -0.00113241551288     0.00022927745894    -0.00113241551288
 frms,max,avg= 8.6132776E-04 1.2009886E-03   0.000E+00  0.000E+00  0.000E+00 e/A
 length scales=  9.340939949400  6.016280682782  9.340939949400 bohr
              =  4.943012528030  3.183678617808  4.943012528030 angstroms
 prteigrs : about to open file RutileGeom2_o_EIG
 Fermi (or HOMO) energy (hartree) =  -0.11283   Average Vxc (hartree)=  -0.37068
 Eigenvalues (hartree) for nkpt=   8  k points:
 kpt#   1, nband= 17, wtk=  0.12500, kpt= -0.2500  0.5000  0.0000 (reduced coord)
  -0.72384   -0.72384   -0.71776   -0.71776   -0.24925   -0.24921   -0.23825   -0.23823
  -0.21233   -0.21231   -0.19691   -0.19690   -0.16055   -0.16054   -0.14970   -0.14969
  -0.03154
 prteigrs : prtvol=0 or 1, do not print more k-points.


--------------------------------------------------------------------------------
 Components of total free energy (in Hartree) :

    Kinetic energy  =  5.26157157724416E+01
    Hartree energy  =  1.96764274458262E+01
    XC energy       = -2.08222070679462E+01
    Ewald energy    = -5.39687825352200E+01
    PspCore energy  =  8.51353943482571E+00
    Loc. psp. energy= -7.84797322376538E+01
    NL   psp  energy= -2.15220191068970E+00
    >>>>>>>>> Etotal= -7.46172410984162E+01

 Other information on the energy :
    Total energy(eV)= -2.03043839010317E+03 ; Band energy (Ha)=  -1.0495716719E+01
--------------------------------------------------------------------------------
 rms coord change=  4.5601E-03   atom, delta coord (reduced):
     1        0.000000000000      0.000035192014      0.000000000000
     2        0.000000000000     -0.000035192014      0.000000000000
     3        0.006840052903      0.000001616271     -0.006840052903
     4       -0.006840052903      0.000001616271      0.006840052903
     5        0.006840052903     -0.000001616271      0.006840052903
     6       -0.006840052903     -0.000001616271     -0.006840052903

 Cartesian components of stress tensor (hartree/bohr^3)
  sigma(1 1)=  2.45406039E-04  sigma(3 2)=  0.00000000E+00
  sigma(2 2)= -4.85077075E-04  sigma(3 1)=  0.00000000E+00
  sigma(3 3)=  2.45406039E-04  sigma(2 1)=  0.00000000E+00

-Cartesian components of stress tensor (GPa)         [Pressure= -5.6243E-02 GPa]
- sigma(1 1)=  7.22009372E+00  sigma(3 2)=  0.00000000E+00
- sigma(2 2)= -1.42714579E+01  sigma(3 1)=  0.00000000E+00
- sigma(3 3)=  7.22009372E+00  sigma(2 1)=  0.00000000E+00

== END DATASET(S) ==============================================================
================================================================================
  
 -outvars: echo values of variables after computation  --------
            acell      9.3409399494E+00  6.0162806828E+00  9.3409399494E+00 Bohr
              amu      4.78800000E+01  1.59994000E+01
           diemac      1.20000000E+01
          dilatmx      1.20000000E+00
             ecut      2.00000000E+01 Hartree
           ecutsm      5.00000000E-01 Hartree
           etotal     -7.4617241098E+01
            fcart     -1.1293772632E-21 -2.3355512103E-05 -1.6890396673E-31
                      -1.1293772632E-21  2.3355512103E-05 -1.2667797505E-31
                       2.2021977388E-05 -4.4587370617E-06 -2.2021977388E-05
                      -2.2021977388E-05 -4.4587370617E-06  2.2021977388E-05
                       2.2021977388E-05  4.4587370617E-06  2.2021977388E-05
                      -2.2021977388E-05  4.4587370617E-06 -2.2021977388E-05
-          fftalg         112
           getwfk          -1
           ionmov           2
              ixc          11
              kpt     -2.50000000E-01  5.00000000E-01  0.00000000E+00
                       5.00000000E-01 -2.50000000E-01  0.00000000E+00
                      -2.50000000E-01 -2.50000000E-01  2.50000000E-01
                      -2.50000000E-01  0.00000000E+00  0.00000000E+00
                       5.00000000E-01  5.00000000E-01  2.50000000E-01
                       0.00000000E+00 -2.50000000E-01  0.00000000E+00
                       5.00000000E-01 -2.50000000E-01  5.00000000E-01
                       5.00000000E-01  0.00000000E+00  2.50000000E-01
         kptrlatt        2   -2    2      0    4    0     -2   -2    2
          kptrlen      2.23644000E+01
P           mkmem           8
            natom           6
            nband          17
            ngfft          45      30      45
             nkpt           8
            nstep          20
             nsym           8
            ntime          20
           ntypat           2
              occ      2.000000  2.000000  2.000000  2.000000  2.000000  2.000000
                       2.000000  2.000000  2.000000  2.000000  2.000000  2.000000
                       2.000000  2.000000  2.000000  2.000000  0.000000
          optcell           1
           shiftk      5.00000000E-01  0.00000000E+00  5.00000000E-01
          spgroup         113
           strten      2.4540603873E-04 -4.8507707478E-04  2.4540603873E-04
                       0.0000000000E+00  0.0000000000E+00  0.0000000000E+00
           symrel      1  0  0   0  1  0   0  0  1       1  0  0   0 -1  0   0  0 -1
                      -1  0  0   0  1  0   0  0 -1      -1  0  0   0 -1  0   0  0  1
                       0  0  1   0  1  0   1  0  0       0  0  1   0 -1  0  -1  0  0
                       0  0 -1   0  1  0  -1  0  0       0  0 -1   0 -1  0   1  0  0
            tnons      0.0000000  0.0000000  0.0000000     0.5000000 -0.4999911  0.5000000
                       0.0000000  0.0000000  0.0000000     0.5000000 -0.4999911  0.5000000
                       0.0000000  0.0000000  0.0000000     0.5000000 -0.4999911  0.5000000
                       0.0000000  0.0000000  0.0000000     0.5000000 -0.4999911  0.5000000
           toldfe      1.00000000E-04 Hartree
            typat      1  1  2  2  2  2
              wtk        0.12500    0.12500    0.25000    0.12500    0.12500    0.06250
                         0.06250    0.12500
           xangst      5.6028982276E-20  1.1204006286E-04  5.8868908306E-20
                       2.4715062640E+00  1.5917557398E+00  2.4715062640E+00
                       3.4445164436E+00  5.1456890078E-06  1.4984960844E+00
                       1.4984960844E+00  5.1456890078E-06  3.4445164436E+00
                       9.7301017963E-01  1.5918626342E+00  9.7301017963E-01
                       3.9700023484E+00  1.5918626342E+00  3.9700023484E+00
            xcart      1.0587943201E-19  2.1172503472E-04  1.1124611444E-19
                       4.6704699747E+00  3.0079824187E+00  4.6704699747E+00
                       6.5091927387E+00  9.7239429898E-06  2.8317472107E+00
                       2.8317472107E+00  9.7239429898E-06  6.5091927387E+00
                       1.8387227640E+00  3.0081844197E+00  1.8387227640E+00
                       7.5022171854E+00  3.0081844197E+00  7.5022171854E+00
             xred      1.1334986905E-20  3.5192014117E-05  1.1909520353E-20
                       5.0000000000E-01  4.9997375077E-01  5.0000000000E-01
                       6.9684558235E-01  1.6162714977E-06  3.0315441765E-01
                       3.0315441765E-01  1.6162714977E-06  6.9684558235E-01
                       1.9684558235E-01  5.0000732651E-01  1.9684558235E-01
                       8.0315441765E-01  5.0000732651E-01  8.0315441765E-01
            znucl       22.00000    8.00000

================================================================================

- Total cpu        time (s,m,h):        217.0        3.62      0.060
- Total wall clock time (s,m,h):        218.0        3.63      0.061
-
- For major independent code sections, cpu and wall times (sec),
-  as well as % of the time and number of calls for node 0-
-<BEGIN_TIMER mpi_nprocs = 1, omp_nthreads = 1, mpi_rank = 0>
- cpu_time =          217.0, wall_time =          218.0
-
- routine                        cpu     %       wall     %      number of calls  Gflops    Speedup Efficacity
-                                                                  (-1=no count)
- fourwf%(pot)                 118.422  54.6    118.453  54.3         111780      -1.00        1.00       1.00
- projbd                        28.094  12.9     27.721  12.7         178680      -1.00        1.01       1.01
- nonlop(apply)                 27.281  12.6     27.195  12.5         111780      -1.00        1.00       1.00
- fourwf%(den)                   9.703   4.5      9.687   4.4          16000      -1.00        1.00       1.00
- vtowfk(ssdiag)                 5.891   2.7      6.040   2.8             -1      -1.00        0.98       0.98
- getghc-other                   2.375   1.1      2.549   1.2             -1      -1.00        0.93       0.93
- xc:pot/=fourdp                 2.234   1.0      2.247   1.0            145      -1.00        0.99       0.99
- fourdp                         1.422   0.7      1.387   0.6           1805      -1.00        1.03       1.03
- nonlop(forstr)                 1.359   0.6      1.464   0.7           2560      -1.00        0.93       0.93
- others (104)                   3.203   1.5      3.424   1.6             -1      -1.00        0.94       0.94
-<END_TIMER>
-
- subtotal                     199.984  92.1    200.167  91.8                                  1.00       1.00

- For major independent code sections, cpu and wall times (sec),
- as well as % of the total time and number of calls 

-<BEGIN_TIMER mpi_nprocs = 1, omp_nthreads = 1, mpi_rank = world>
- cpu_time =         217.0, wall_time =         218.0
-
- routine                         cpu     %       wall     %      number of calls Gflops    Speedup Efficacity
-                                                                  (-1=no count)
- fourwf%(pot)                 118.422  54.6    118.453  54.3         111780      -1.00        1.00       1.00
- projbd                        28.094  12.9     27.721  12.7         178680      -1.00        1.01       1.01
- nonlop(apply)                 27.281  12.6     27.195  12.5         111780      -1.00        1.00       1.00
- fourwf%(den)                   9.703   4.5      9.687   4.4          16000      -1.00        1.00       1.00
- vtowfk(ssdiag)                 5.891   2.7      6.040   2.8             -1      -1.00        0.98       0.98
- getghc-other                   2.375   1.1      2.549   1.2             -1      -1.00        0.93       0.93
- xc:pot/=fourdp                 2.234   1.0      2.247   1.0            145      -1.00        0.99       0.99
- fourdp                         1.422   0.7      1.387   0.6           1805      -1.00        1.03       1.03
- nonlop(forstr)                 1.359   0.6      1.464   0.7           2560      -1.00        0.93       0.93
- others (104)                   3.203   1.5      3.424   1.6             -1      -1.00        0.94       0.94
-<END_TIMER>

- subtotal                     199.984  92.1    200.167  91.8                                  1.00       1.00

================================================================================

 Suggested references for the acknowledgment of ABINIT usage.

 The users of ABINIT have little formal obligations with respect to the ABINIT group
 (those specified in the GNU General Public License, http://www.gnu.org/copyleft/gpl.txt).
 However, it is common practice in the scientific literature,
 to acknowledge the efforts of people that have made the research possible.
 In this spirit, please find below suggested citations of work written by ABINIT developers,
 corresponding to implementations inside of ABINIT that you have used in the present run.
 Note also that it will be of great value to readers of publications presenting these results,
 to read papers enabling them to understand the theoretical formalism and details
 of the ABINIT implementation.
 For information on why they are suggested, see also https://www.abinit.org/about/?text=acknowledgments.
-
- [1] Recent developments in the ABINIT software package.
- Computer Phys. Comm. 205, 106 (2016).
- X.Gonze, F.Jollet, F.Abreu Araujo, D.Adams, B.Amadon, T.Applencourt,
- C.Audouze, J.-M.Beuken, J.Bieder, A.Bokhanchuk, E.Bousquet, F.Bruneval
- D.Caliste, M.Cote, F.Dahm, F.Da Pieve, M.Delaveau, M.Di Gennaro,
- B.Dorado, C.Espejo, G.Geneste, L.Genovese, A.Gerossier, M.Giantomassi,
- Y.Gillet, D.R.Hamann, L.He, G.Jomard, J.Laflamme Janssen, S.Le Roux,
- A.Levitt, A.Lherbier, F.Liu, I.Lukacevic, A.Martin, C.Martins,
- M.J.T.Oliveira, S.Ponce, Y.Pouillon, T.Rangel, G.-M.Rignanese,
- A.H.Romero, B.Rousseau, O.Rubel, A.A.Shukri, M.Stankovski, M.Torrent,
- M.J.Van Setten, B.Van Troeye, M.J.Verstraete, D.Waroquier, J.Wiktor,
- B.Xue, A.Zhou, J.W.Zwanziger.
- Comment : the fourth generic paper describing the ABINIT project.
- Note that a version of this paper, that is not formatted for Computer Phys. Comm. 
- is available at https://www.abinit.org/about/ABINIT16.pdf .
- The licence allows the authors to put it on the Web.
-
- [2] ABINIT : First-principles approach of materials and nanosystem properties.
- Computer Phys. Comm. 180, 2582-2615 (2009).
- X. Gonze, B. Amadon, P.-M. Anglade, J.-M. Beuken, F. Bottin, P. Boulanger, F. Bruneval,
- D. Caliste, R. Caracas, M. Cote, T. Deutsch, L. Genovese, Ph. Ghosez, M. Giantomassi
- S. Goedecker, D.R. Hamann, P. Hermet, F. Jollet, G. Jomard, S. Leroux, M. Mancini, S. Mazevet,
- M.J.T. Oliveira, G. Onida, Y. Pouillon, T. Rangel, G.-M. Rignanese, D. Sangalli, R. Shaltaf,
- M. Torrent, M.J. Verstraete, G. Zerah, J.W. Zwanziger
- Comment : the third generic paper describing the ABINIT project.
- Note that a version of this paper, that is not formatted for Computer Phys. Comm. 
- is available at https://www.abinit.org/about/ABINIT_CPC_v10.pdf .
- The licence allows the authors to put it on the Web.
-
- [3] A brief introduction to the ABINIT software package.
- Z. Kristallogr. 220, 558-562 (2005).
- X. Gonze, G.-M. Rignanese, M. Verstraete, J.-M. Beuken, Y. Pouillon, R. Caracas, F. Jollet,
- M. Torrent, G. Zerah, M. Mikami, Ph. Ghosez, M. Veithen, J.-Y. Raty, V. Olevano, F. Bruneval,
- L. Reining, R. Godby, G. Onida, D.R. Hamann, and D.C. Allan.
- Comment : the second generic paper describing the ABINIT project. Note that this paper
- should be cited especially if you are using the GW part of ABINIT, as several authors
- of this part are not in the list of authors of the first or third paper.
- The .pdf of the latter paper is available at https://www.abinit.org/about/zfk_0505-06_558-562.pdf.
- Note that it should not redistributed (Copyright by Oldenburg Wissenshaftverlag,
- the licence allows the authors to put it on the Web).
-
- And optionally:
-
- [4] First-principles computation of material properties : the ABINIT software project. 
- X. Gonze, J.-M. Beuken, R. Caracas, F. Detraux, M. Fuchs, G.-M. Rignanese, L. Sindic,
- M. Verstraete, G. Zerah, F. Jollet, M. Torrent, A. Roy, M. Mikami, Ph. Ghosez, J.-Y. Raty, D.C. Allan.
- Computational Materials Science 25, 478-492 (2002). http://dx.doi.org/10.1016/S0927-0256(02)00325-7
- Comment : the original paper describing the ABINIT project.
-
- Proc.   0 individual time (sec): cpu=        217.0  wall=        218.0

================================================================================

 Calculation completed.
.Delivered   7 WARNINGs and  22 COMMENTs to log file.
+Overall time at end (sec) : cpu=        217.0  wall=        218.0
