  ABINIT 8.6.3
  
  Give name for formatted input file: 
PdDOS.in
  Give name for formatted output file:
PdDOS.out
  Give root name for generic input files:
PdDOS_i
  Give root name for generic output files:
PdDOS_o
  Give root name for generic temporary files:
PdDOS

.Version 8.6.3 of ABINIT 
.(sequential version, prepared for a x86_64_linux_gnu5.4 computer) 

.Copyright (C) 1998-2017 ABINIT group . 
 ABINIT comes with ABSOLUTELY NO WARRANTY.
 It is free software, and you are welcome to redistribute it
 under certain conditions (GNU General Public License,
 see ~abinit/COPYING or http://www.gnu.org/copyleft/gpl.txt).

 ABINIT is a project of the Universite Catholique de Louvain,
 Corning Inc. and other collaborators, see ~abinit/doc/developers/contributors.txt .
 Please read ~abinit/doc/users/acknowledgments.html for suggested
 acknowledgments of the ABINIT effort.
 For more information, see https://www.abinit.org .

.Starting date : Fri 27 Apr 2018.
- ( at 21h53 )
  

 ++++++++++++++++++++++++++++++++++++++++++++++++++++++++++++++++++++++++++++++

 === Build Information === 
  Version       : 8.6.3
  Build target  : x86_64_linux_gnu5.4
  Build date    : 20180412

 === Compiler Suite === 
  C compiler       : gnu5.4
  C++ compiler     : gnu5.4
  Fortran compiler : gnu5.4
  CFLAGS           :  -g -O2 -mtune=native -march=native
  CXXFLAGS         :  -g -O2 -mtune=native -march=native
  FCFLAGS          :  -g -ffree-line-length-none
  FC_LDFLAGS       : 

 === Optimizations === 
  Debug level        : basic
  Optimization level : standard
  Architecture       : unknown_unknown

 === Multicore === 
  Parallel build : no
  Parallel I/O   : no
  openMP support : no
  GPU support    : no

 === Connectors / Fallbacks === 
  Connectors on : yes
  Fallbacks on  : yes
  DFT flavor    : none
  FFT flavor    : none
  LINALG flavor : netlib-fallback
  MATH flavor   : none
  TIMER flavor  : abinit
  TRIO flavor   : none

 === Experimental features === 
  Bindings            : @enable_bindings@
  Exports             : no
  GW double-precision : no

 ++++++++++++++++++++++++++++++++++++++++++++++++++++++++++++++++++++++++++++++


 ++++++++++++++++++++++++++++++++++++++++++++++++++++++++++++++++++++++++++++++
 Default optimizations:
   -O2 -mtune=native -march=native


 Optimizations for 20_datashare:
   -O0


 ++++++++++++++++++++++++++++++++++++++++++++++++++++++++++++++++++++++++++++++


 ++++++++++++++++++++++++++++++++++++++++++++++++++++++++++++++++++++++++++++++
 CPP options activated during the build:

                    CC_GNU                   CXX_GNU                    FC_GNU
 
 HAVE_FC_ALLOCATABLE_DT...             HAVE_FC_ASYNC         HAVE_FC_BACKTRACE
 
  HAVE_FC_COMMAND_ARGUMENT      HAVE_FC_COMMAND_LINE        HAVE_FC_CONTIGUOUS
 
           HAVE_FC_CPUTIME              HAVE_FC_EXIT             HAVE_FC_FLUSH
 
             HAVE_FC_GAMMA            HAVE_FC_GETENV   HAVE_FC_IEEE_EXCEPTIONS
 
          HAVE_FC_INT_QUAD             HAVE_FC_IOMSG     HAVE_FC_ISO_C_BINDING
 
  HAVE_FC_ISO_FORTRAN_2008        HAVE_FC_LONG_LINES        HAVE_FC_MOVE_ALLOC
 
           HAVE_FC_PRIVATE         HAVE_FC_PROTECTED         HAVE_FC_STREAM_IO
 
            HAVE_FC_SYSTEM          HAVE_FORTRAN2003        HAVE_LIBPAW_ABINIT
 
      HAVE_LIBTETRA_ABINIT             HAVE_OS_LINUX         HAVE_TIMER_ABINIT
 
              USE_MACROAVE                                                      
 ++++++++++++++++++++++++++++++++++++++++++++++++++++++++++++++++++++++++++++++

- input  file    -> PdDOS.in
- output file    -> PdDOS.out
- root for input  files -> PdDOS_i
- root for output files -> PdDOS_o

-instrng: 76 lines of input have been read from file PdDOS.in


 Please give name of formatted atomic psp file
 iofn2 : for atom type 1, psp file is ../../../Psps_for_tests/Pd.psp8
  read the values zionpsp= 18.0 , pspcod=   8 , lmax=   2

 inpspheads: deduce mpsang = 3, n1xccc = 2501.
 invars1 : treat image number: 1

 symlatt : the Bravais lattice is cF (face-centered cubic)
  xred   is defined in input file
 ingeo : takes atomic coordinates from input array xred
 symfind : exit, nsym=48
   symrel matrices, symafm and tnons are :
   1       1   0   0     0   1   0     0   0   1       1      0.0000  0.0000  0.0000
   2      -1   0   0     0  -1   0     0   0  -1       1      0.0000  0.0000  0.0000
   3       0  -1   1     0  -1   0     1  -1   0       1      0.0000  0.0000  0.0000
   4       0   1  -1     0   1   0    -1   1   0       1      0.0000  0.0000  0.0000
   5      -1   0   0    -1   0   1    -1   1   0       1      0.0000  0.0000  0.0000
   6       1   0   0     1   0  -1     1  -1   0       1      0.0000  0.0000  0.0000
   7       0   1  -1     1   0  -1     0   0  -1       1      0.0000  0.0000  0.0000
   8       0  -1   1    -1   0   1     0   0   1       1      0.0000  0.0000  0.0000
   9      -1   0   0    -1   1   0    -1   0   1       1      0.0000  0.0000  0.0000
  10       1   0   0     1  -1   0     1   0  -1       1      0.0000  0.0000  0.0000
  11       0  -1   1     1  -1   0     0  -1   0       1      0.0000  0.0000  0.0000
  12       0   1  -1    -1   1   0     0   1   0       1      0.0000  0.0000  0.0000
  13       1   0   0     0   0   1     0   1   0       1      0.0000  0.0000  0.0000
  14      -1   0   0     0   0  -1     0  -1   0       1      0.0000  0.0000  0.0000
  15       0   1  -1     0   0  -1     1   0  -1       1      0.0000  0.0000  0.0000
  16       0  -1   1     0   0   1    -1   0   1       1      0.0000  0.0000  0.0000
  17      -1   0   1    -1   1   0    -1   0   0       1      0.0000  0.0000  0.0000
  18       1   0  -1     1  -1   0     1   0   0       1      0.0000  0.0000  0.0000
  19       0  -1   0     1  -1   0     0  -1   1       1      0.0000  0.0000  0.0000
  20       0   1   0    -1   1   0     0   1  -1       1      0.0000  0.0000  0.0000
  21       1   0  -1     0   0  -1     0   1  -1       1      0.0000  0.0000  0.0000
  22      -1   0   1     0   0   1     0  -1   1       1      0.0000  0.0000  0.0000
  23       0   1   0     0   0   1     1   0   0       1      0.0000  0.0000  0.0000
  24       0  -1   0     0   0  -1    -1   0   0       1      0.0000  0.0000  0.0000
  25       1   0  -1     0   1  -1     0   0  -1       1      0.0000  0.0000  0.0000
  26      -1   0   1     0  -1   1     0   0   1       1      0.0000  0.0000  0.0000
  27       0  -1   0     0  -1   1     1  -1   0       1      0.0000  0.0000  0.0000
  28       0   1   0     0   1  -1    -1   1   0       1      0.0000  0.0000  0.0000
  29      -1   0   1    -1   0   0    -1   1   0       1      0.0000  0.0000  0.0000
  30       1   0  -1     1   0   0     1  -1   0       1      0.0000  0.0000  0.0000
  31       0   1   0     1   0   0     0   0   1       1      0.0000  0.0000  0.0000
  32       0  -1   0    -1   0   0     0   0  -1       1      0.0000  0.0000  0.0000
  33       0   0  -1     0   1  -1     1   0  -1       1      0.0000  0.0000  0.0000
  34       0   0   1     0  -1   1    -1   0   1       1      0.0000  0.0000  0.0000
  35       1  -1   0     0  -1   1     0  -1   0       1      0.0000  0.0000  0.0000
  36      -1   1   0     0   1  -1     0   1   0       1      0.0000  0.0000  0.0000
  37       0   0   1     1   0   0     0   1   0       1      0.0000  0.0000  0.0000
  38       0   0  -1    -1   0   0     0  -1   0       1      0.0000  0.0000  0.0000
  39      -1   1   0    -1   0   0    -1   0   1       1      0.0000  0.0000  0.0000
  40       1  -1   0     1   0   0     1   0  -1       1      0.0000  0.0000  0.0000
  41       0   0   1     0   1   0     1   0   0       1      0.0000  0.0000  0.0000
  42       0   0  -1     0  -1   0    -1   0   0       1      0.0000  0.0000  0.0000
  43       1  -1   0     0  -1   0     0  -1   1       1      0.0000  0.0000  0.0000
  44      -1   1   0     0   1   0     0   1  -1       1      0.0000  0.0000  0.0000
  45       0   0  -1     1   0  -1     0   1  -1       1      0.0000  0.0000  0.0000
  46       0   0   1    -1   0   1     0  -1   1       1      0.0000  0.0000  0.0000
  47      -1   1   0    -1   0   1    -1   0   0       1      0.0000  0.0000  0.0000
  48       1  -1   0     1   0  -1     1   0   0       1      0.0000  0.0000  0.0000

 symlatt : the Bravais lattice is cF (face-centered cubic)

 symlatt : the Bravais lattice is cF (face-centered cubic)
 symspgr : spgroup= 225  Fm -3 m   (=Oh^5)
 symspgr : optical characteristics = isotropic
 ingeo : angdeg(1:3)=   60.00000000   60.00000000   60.00000000
 invars2: take the default value of fband=  1.25000000E-01
 chkneu : initialized the occupation numbers for occopt=    1, spin-unpolarized or antiferromagnetic case :
  2.00  2.00  2.00  2.00  2.00  2.00  2.00  2.00  2.00  0.00
mpi_setup: mkmem  undefined in the input file.Use default mkmem  = nkpt
 mpi_setup: With nkpt_me=2 and mkmem  = 2, ground state wf handled in core.
mpi_setup: mkqmem undefined in the input file.Use default mkqmem = nkpt
 mpi_setup: With nkpt_me=2 and mkqmem = 2, ground state wf handled in core.
mpi_setup: mk1mem undefined in the input file.Use default mk1mem = nkpt
 mpi_setup: With nkpt_me=2 and mk1mem = 2, ground state wf handled in core.
 For input ecut=  6.000000E+01 best grid ngfft=      40      40      40
       max ecut=  7.303003E+01

 ==== FFT mesh ====
  FFT mesh divisions ........................    40   40   40
  Augmented FFT divisions ...................    41   41   40
  FFT algorithm .............................   112
  FFT cache size ............................    16
 getmpw: optimal value of mpw= 2210

 Symmetries : space group Fm -3 m (#225); Bravais cF (face-center cubic)

 getdim_nloc : deduce lmnmax  =  18, lnmax  =   6,
                      lmnmaxso=  18, lnmaxso=   6.
memory : analysis of memory needs
================================================================================
 Values of the parameters that define the memory need of the present run
     intxc =       0    ionmov =       0      iscf =       7    lmnmax =       6
     lnmax =       6     mgfft =      40  mpssoang =       3    mqgrid =    3001
     natom =       1  nloc_mem =       1    nspden =       1   nspinor =       1
    nsppol =       1      nsym =      48    n1xccc =    2501    ntypat =       1
    occopt =       1   xclevel =       2
-    mband =          10        mffmem =           1         mkmem =           2
       mpw =        2210          nfft =       64000          nkpt =           2
================================================================================
P This job should need less than                      21.999 Mbytes of memory.
  Rough estimation (10% accuracy) of disk space for files :
_ WF disk file :      0.676 Mbytes ; DEN or POT disk file :      0.490 Mbytes.
================================================================================

 Biggest array : f_fftgr(disk), with      7.8145 MBytes.
 memana : allocated an array of      7.815 Mbytes, for testing purposes.
 memana: allocated      21.999Mbytes, for testing purposes. 
 The job will continue.
--------------------------------------------------------------------------------
------------- Echo of variables that govern the present computation ------------
--------------------------------------------------------------------------------
-
- outvars: echo of selected default values                                      
-   iomode0 =  0 , fftalg0 =112 , wfoptalg0 =  0
-
- outvars: echo of global parameters not present in the input file              
-  max_nthreads =    0
-
 -outvars: echo values of preprocessed input variables --------
            acell      7.3524000000E+00  7.3524000000E+00  7.3524000000E+00 Bohr
              amu      1.06420000E+02
           diemac      1.20000000E+01
             ecut      6.00000000E+01 Hartree
-          fftalg         112
           getwfk          -1
              ixc          11
              kpt     -2.50000000E-01  5.00000000E-01  0.00000000E+00
                      -2.50000000E-01  0.00000000E+00  0.00000000E+00
         kptrlatt        2   -2    2     -2    2    2     -2   -2    2
          kptrlen      1.47048000E+01
P           mkmem           2
            natom           1
            nband          10
            ngfft          40      40      40
             nkpt           2
            nstep          40
             nsym          48
           ntypat           1
              occ      2.000000  2.000000  2.000000  2.000000  2.000000  2.000000
                       2.000000  2.000000  2.000000  0.000000
           prtdos           2
            rprim      0.0000000000E+00  5.0000000000E-01  5.0000000000E-01
                       5.0000000000E-01  0.0000000000E+00  5.0000000000E-01
                       5.0000000000E-01  5.0000000000E-01  0.0000000000E+00
           shiftk      5.00000000E-01  5.00000000E-01  5.00000000E-01
          spgroup         225
           symrel      1  0  0   0  1  0   0  0  1      -1  0  0   0 -1  0   0  0 -1
                       0 -1  1   0 -1  0   1 -1  0       0  1 -1   0  1  0  -1  1  0
                      -1  0  0  -1  0  1  -1  1  0       1  0  0   1  0 -1   1 -1  0
                       0  1 -1   1  0 -1   0  0 -1       0 -1  1  -1  0  1   0  0  1
                      -1  0  0  -1  1  0  -1  0  1       1  0  0   1 -1  0   1  0 -1
                       0 -1  1   1 -1  0   0 -1  0       0  1 -1  -1  1  0   0  1  0
                       1  0  0   0  0  1   0  1  0      -1  0  0   0  0 -1   0 -1  0
                       0  1 -1   0  0 -1   1  0 -1       0 -1  1   0  0  1  -1  0  1
                      -1  0  1  -1  1  0  -1  0  0       1  0 -1   1 -1  0   1  0  0
                       0 -1  0   1 -1  0   0 -1  1       0  1  0  -1  1  0   0  1 -1
                       1  0 -1   0  0 -1   0  1 -1      -1  0  1   0  0  1   0 -1  1
                       0  1  0   0  0  1   1  0  0       0 -1  0   0  0 -1  -1  0  0
                       1  0 -1   0  1 -1   0  0 -1      -1  0  1   0 -1  1   0  0  1
                       0 -1  0   0 -1  1   1 -1  0       0  1  0   0  1 -1  -1  1  0
                      -1  0  1  -1  0  0  -1  1  0       1  0 -1   1  0  0   1 -1  0
                       0  1  0   1  0  0   0  0  1       0 -1  0  -1  0  0   0  0 -1
                       0  0 -1   0  1 -1   1  0 -1       0  0  1   0 -1  1  -1  0  1
                       1 -1  0   0 -1  1   0 -1  0      -1  1  0   0  1 -1   0  1  0
                       0  0  1   1  0  0   0  1  0       0  0 -1  -1  0  0   0 -1  0
                      -1  1  0  -1  0  0  -1  0  1       1 -1  0   1  0  0   1  0 -1
                       0  0  1   0  1  0   1  0  0       0  0 -1   0 -1  0  -1  0  0
                       1 -1  0   0 -1  0   0 -1  1      -1  1  0   0  1  0   0  1 -1
                       0  0 -1   1  0 -1   0  1 -1       0  0  1  -1  0  1   0 -1  1
                      -1  1  0  -1  0  1  -1  0  0       1 -1  0   1  0 -1   1  0  0
           toldfe      1.00000000E-06 Hartree
            typat      1
              wtk        0.75000    0.25000
            znucl       46.00000

================================================================================

 chkinp: Checking input parameters for consistency.
 DATA TYPE INFORMATION: 
 REAL:      Data type name: REAL(DP) 
            Kind value:      8
            Precision:      15
            Smallest nonnegligible quantity relative to 1:  0.22204460E-15
            Smallest positive number:                       0.22250739-307
            Largest representable number:                   0.17976931+309
 INTEGER:   Data type name: INTEGER(default) 
            Kind value: 4
            Bit size:   32
            Largest representable number: 2147483647
 LOGICAL:   Data type name: LOGICAL 
            Kind value: 4
 CHARACTER: Data type name: CHARACTER             Kind value: 1

  ==== OpenMP parallelism is OFF ====
 
  MPI-IO support is OFF

================================================================================
== DATASET  1 ==================================================================
-   nproc =    1


 getdim_nloc : deduce lmnmax  =  18, lnmax  =   6,
                      lmnmaxso=  18, lnmaxso=   6.
 Exchange-correlation functional for the present dataset will be:
  GGA: Perdew-Burke-Ernzerhof functional - ixc=11
 Citation for XC functional:
  J.P.Perdew, K.Burke, M.Ernzerhof, PRL 77, 3865 (1996)

 Unit cell volume ucvol=  9.9363616E+01 bohr^3
 Angles (23,13,12)=  6.00000000E+01  6.00000000E+01  6.00000000E+01 degrees

 getcut: wavevector=  0.0000  0.0000  0.0000  ngfft=  40  40  40
         ecut(hartree)=     60.000   => boxcut(ratio)=   2.20651

 getcut : COMMENT -
  Note that boxcut > 2.2 ; recall that boxcut=Gcut(box)/Gcut(sphere) = 2
  is sufficient for exact treatment of convolution.
  Such a large boxcut is a waste : you could raise ecut
  e.g. ecut=   73.030031 Hartrees makes boxcut=2

- pspini: atom type   1  psp file is ../../../Psps_for_tests/Pd.psp8
- pspatm: opening atomic psp file    ../../../Psps_for_tests/Pd.psp8
- Pd    ONCVPSP-3.2.3.1  r_core=   1.41052   1.46191   1.55175
- 46.00000  18.00000    170510                znucl, zion, pspdat
    8   11    2    4       600   0.00000      pspcod,pspxc,lmax,lloc,mmax,r2well
    5.99000000000000    7.00000000000000    0.00000000000000   rchrg,fchrg,qchrg
     nproj     2     2     2
     extension_switch     1
 valence charge integrates to:    17.981740865694604     
  pspatm : epsatm=   26.09224486
         --- l  ekb(1:nproj) -->
             0    7.845850   -2.282160
             1    3.261104   -0.686948
             2   -1.134855   -0.401224
 pspatm: atomic psp has been read  and splines computed

   4.69660407E+02                                ecore*ucvol(ha*bohr**3)
 ==== Info on pseudopotentials ====
  Norm-conserving pseudopotentials
  Number of pseudopotentials ..    1
  Number of types of atoms   ..    1
  Scalar calculation (no spin-orbit term)
  Nonlocal part applied using Legendre polynomials
  Max number of non-local projectors over l and type   2
  Highest angular momentum +1 .......   3
  Max number of (l,n)   components ..   6
  Max number of (l,m,n) components ..   6

 Pseudo-Core Charge Info: 
   Number of radial points for pseudo-core charge .. 2501
   XC core-correction treatment (optnlxccc) ........    1
   Radius for pseudo-core charge for each type ..... 

  - Atom type    1 has pseudo-core radius ..  5.9900

 Info on the Q-grid used for form factors in spline form: 
   Number of q-points for radial functions ffspl ..   3001
   Number of q-points for vlspl ...................   3001
   vloc is computed in Reciprocal Space
   model core charge treated in real-space

  XC functional for type 1 is 11
  Pseudo valence available: yes

 wfconv:    10 bands initialized randomly with npw=  2210, for ikpt=     1
 wfconv:    10 bands initialized randomly with npw=  2196, for ikpt=     2
_setup2: Arith. and geom. avg. npw (full set) are    2206.500    2206.492
 initro: for itypat=  1, take pseudo charge density from pp file

================================================================================

 getcut: wavevector=  0.0000  0.0000  0.0000  ngfft=  40  40  40
         ecut(hartree)=     60.000   => boxcut(ratio)=   2.20651

 getcut : COMMENT -
  Note that boxcut > 2.2 ; recall that boxcut=Gcut(box)/Gcut(sphere) = 2
  is sufficient for exact treatment of convolution.
  Such a large boxcut is a waste : you could raise ecut
  e.g. ecut=   73.030031 Hartrees makes boxcut=2


 ITER STEP NUMBER     1
 vtorho : nnsclo_now=2, note that nnsclo,dbl_nnsclo,istep=0 0 1
 non-scf iterations; kpt #     1  , k= ( -0.25000  0.50000  0.00000  ), band residuals:
 res:  3.30E+00  2.41E+00  1.65E+00  2.12E+00  1.06E+00  7.73E-01  4.95E-01  8.04E-01
 res:  7.60E-01  9.28E-01
 ene: -2.12E+00 -1.12E+00 -1.04E+00 -8.10E-01  4.29E-01  4.93E-01  6.17E-01  7.03E-01
 ene:  9.23E-01  1.17E+00
 res:  5.83E-02  1.42E-02  1.72E-02  6.12E-02  1.00E-02  1.54E-02  3.77E-02  2.83E-02
 res:  1.00E-01  1.70E-01
 ene: -2.52E+00 -1.28E+00 -1.27E+00 -1.26E+00  3.42E-01  3.75E-01  4.32E-01  4.75E-01
 ene:  5.72E-01  6.90E-01
 vtowfk : number of one-way 3D ffts skipped in vtowfk until now =1
     eigenvalues (hartree) for   10  bands
              after    3 non-SCF iterations with    4 CG line minimizations
 -2.5242E+00 -1.2820E+00 -1.2750E+00 -1.2633E+00  3.4188E-01  3.7503E-01
  4.3159E-01  4.7513E-01  5.7167E-01  6.8976E-01
 non-scf iterations; kpt #     2  , k= ( -0.25000  0.00000  0.00000  ), band residuals:
 res:  2.67E+00  2.07E+00  2.74E+00  2.09E+00  9.11E-01  6.69E-01  6.20E-01  7.11E-01
 res:  6.94E-01  7.82E-01
 ene: -2.13E+00 -1.09E+00 -9.57E-01 -8.44E-01  3.85E-01  5.18E-01  5.70E-01  6.36E-01
 ene:  6.90E-01  8.60E-01
 res:  5.44E-02  9.97E-03  2.97E-02  5.23E-02  7.01E-03  8.98E-03  1.11E-02  2.40E-02
 res:  2.84E-02  4.52E-02
 ene: -2.53E+00 -1.28E+00 -1.27E+00 -1.27E+00  2.83E-01  4.08E-01  4.32E-01  4.32E-01
 ene:  4.92E-01  4.93E-01
 vtowfk : number of one-way 3D ffts skipped in vtowfk until now =2
     eigenvalues (hartree) for   10  bands
              after    3 non-SCF iterations with    4 CG line minimizations
 -2.5280E+00 -1.2775E+00 -1.2701E+00 -1.2678E+00  2.8299E-01  4.0799E-01
  4.3181E-01  4.3236E-01  4.9178E-01  4.9285E-01
 Total charge density [el/Bohr^3]
      Maximum=    1.7781E+00  at reduced coord.    0.1250    0.8750    0.9500
      Minimum=    2.1813E-02  at reduced coord.    0.5000    0.5000    0.5000
   Integrated=    1.8000E+01
 ETOT  1  -135.31638621959    -1.353E+02 1.697E-01 4.088E+02
 scprqt: <Vxc>= -5.1668824E-01 hartree

Simple mixing update:
  residual square of the potential :   239.19131750995797
 scfcv: previous iteration took 00 [s]

 ITER STEP NUMBER     2
 vtorho : nnsclo_now=2, note that nnsclo,dbl_nnsclo,istep=0 0 2
 non-scf iterations; kpt #     1  , k= ( -0.25000  0.50000  0.00000  ), band residuals:
 res:  7.57E-04  1.97E-03  2.30E-04  7.69E-04  1.60E-03  1.61E-03  3.36E-03  1.34E-03
 res:  1.80E-03  1.06E-02
 ene: -2.72E+00 -1.46E+00 -1.45E+00 -1.45E+00  2.54E-01  2.80E-01  3.33E-01  3.48E-01
 ene:  4.02E-01  5.73E-01
 res:  1.45E-06  9.47E-07  1.25E-07  9.38E-08  1.59E-06  6.73E-06  3.52E-05  4.72E-06
 res:  9.84E-06  1.40E-04
 ene: -2.72E+00 -1.46E+00 -1.45E+00 -1.45E+00  2.54E-01  2.80E-01  3.32E-01  3.48E-01
 ene:  4.02E-01  5.72E-01
 vtowfk : number of one-way 3D ffts skipped in vtowfk until now =3
     eigenvalues (hartree) for   10  bands
              after    3 non-SCF iterations with    4 CG line minimizations
 -2.7240E+00 -1.4601E+00 -1.4544E+00 -1.4525E+00  2.5354E-01  2.7983E-01
  3.3244E-01  3.4822E-01  4.0220E-01  5.7169E-01
 non-scf iterations; kpt #     2  , k= ( -0.25000  0.00000  0.00000  ), band residuals:
 res:  1.34E-03  7.42E-04  9.86E-05  1.81E-04  2.05E-03  1.24E-03  3.91E-05  4.74E-05
 res:  4.89E-05  1.01E-04
 ene: -2.73E+00 -1.46E+00 -1.45E+00 -1.45E+00  2.46E-01  3.17E-01  3.17E-01  3.24E-01
 ene:  3.65E-01  3.65E-01
 res:  1.29E-06  1.73E-08  1.56E-08  2.07E-08  5.71E-08  3.18E-09  5.90E-08  6.09E-08
 res:  1.22E-07  5.67E-07
 ene: -2.73E+00 -1.46E+00 -1.45E+00 -1.45E+00  2.46E-01  3.17E-01  3.17E-01  3.24E-01
 ene:  3.65E-01  3.65E-01
 vtowfk : number of one-way 3D ffts skipped in vtowfk until now =4
     eigenvalues (hartree) for   10  bands
              after    3 non-SCF iterations with    4 CG line minimizations
 -2.7252E+00 -1.4557E+00 -1.4500E+00 -1.4500E+00  2.4567E-01  3.1687E-01
  3.1687E-01  3.2419E-01  3.6467E-01  3.6467E-01
 Total charge density [el/Bohr^3]
      Maximum=    1.9171E+00  at reduced coord.    0.1500    0.8750    0.9750
      Minimum=    1.5105E-02  at reduced coord.    0.5000    0.5000    0.5000
   Integrated=    1.8000E+01
 ETOT  2  -135.41184094683    -9.545E-02 1.401E-04 5.181E+02
 scprqt: <Vxc>= -4.9125996E-01 hartree

 Pulay update with  1 previous iterations:
 mixing of old trial potential : alpha(m:m-4)=  0.469      0.531
 scfcv: previous iteration took 00 [s]

 ITER STEP NUMBER     3
 vtorho : nnsclo_now=1, note that nnsclo,dbl_nnsclo,istep=0 0 3
 non-scf iterations; kpt #     1  , k= ( -0.25000  0.50000  0.00000  ), band residuals:
 res:  1.83E-04  4.93E-04  7.56E-05  2.19E-05  2.35E-04  2.07E-04  7.23E-04  3.47E-05
 res:  2.82E-05  1.37E-03
 ene: -2.60E+00 -1.35E+00 -1.35E+00 -1.34E+00  3.12E-01  3.40E-01  3.96E-01  4.23E-01
 ene:  4.86E-01  6.19E-01
 vtowfk : number of one-way 3D ffts skipped in vtowfk until now =5
     eigenvalues (hartree) for   10  bands
              after    2 non-SCF iterations with    4 CG line minimizations
 -2.6038E+00 -1.3522E+00 -1.3457E+00 -1.3435E+00  3.1208E-01  3.4036E-01
  3.9638E-01  4.2342E-01  4.8590E-01  6.1886E-01
 non-scf iterations; kpt #     2  , k= ( -0.25000  0.00000  0.00000  ), band residuals:
 res:  3.87E-04  2.05E-04  1.46E-05  1.46E-05  7.68E-04  4.79E-06  4.79E-06  7.84E-04
 res:  5.67E-06  5.66E-06
 ene: -2.61E+00 -1.35E+00 -1.34E+00 -1.34E+00  2.81E-01  3.77E-01  3.89E-01  3.89E-01
 ene:  4.43E-01  4.43E-01
 vtowfk : number of one-way 3D ffts skipped in vtowfk until now =6
     eigenvalues (hartree) for   10  bands
              after    2 non-SCF iterations with    4 CG line minimizations
 -2.6052E+00 -1.3472E+00 -1.3406E+00 -1.3406E+00  2.8052E-01  3.7707E-01
  3.8912E-01  3.8912E-01  4.4299E-01  4.4299E-01
 Total charge density [el/Bohr^3]
      Maximum=    1.8347E+00  at reduced coord.    0.1500    0.8750    0.9750
      Minimum=    1.8559E-02  at reduced coord.    0.5000    0.5000    0.5000
   Integrated=    1.8000E+01
 ETOT  3  -135.47578857302    -6.395E-02 1.373E-03 2.946E-01
 scprqt: <Vxc>= -5.0452356E-01 hartree

 Pulay update with  2 previous iterations:
 mixing of old trial potential : alpha(m:m-4)=  0.863      0.593E-01  0.773E-01
 scfcv: previous iteration took 00 [s]

 ITER STEP NUMBER     4
 vtorho : nnsclo_now=1, note that nnsclo,dbl_nnsclo,istep=0 0 4
 non-scf iterations; kpt #     1  , k= ( -0.25000  0.50000  0.00000  ), band residuals:
 res:  2.42E-07  6.07E-08  7.27E-08  4.15E-08  3.06E-07  2.83E-07  5.86E-07  1.94E-08
 res:  8.95E-08  1.49E-06
 ene: -2.62E+00 -1.37E+00 -1.36E+00 -1.36E+00  2.99E-01  3.28E-01  3.84E-01  4.11E-01
 ene:  4.74E-01  6.06E-01
 vtowfk : number of one-way 3D ffts skipped in vtowfk until now =7
     eigenvalues (hartree) for   10  bands
              after    2 non-SCF iterations with    4 CG line minimizations
 -2.6173E+00 -1.3653E+00 -1.3587E+00 -1.3565E+00  2.9933E-01  3.2761E-01
  3.8364E-01  4.1096E-01  4.7354E-01  6.0569E-01
 non-scf iterations; kpt #     2  , k= ( -0.25000  0.00000  0.00000  ), band residuals:
 res:  3.35E-07  2.09E-08  4.27E-08  4.27E-08  3.84E-07  2.67E-07  2.18E-09  2.18E-09
 res:  2.54E-09  2.55E-09
 ene: -2.62E+00 -1.36E+00 -1.35E+00 -1.35E+00  2.67E-01  3.64E-01  3.77E-01  3.77E-01
 ene:  4.31E-01  4.31E-01
 vtowfk : number of one-way 3D ffts skipped in vtowfk until now =8
     eigenvalues (hartree) for   10  bands
              after    2 non-SCF iterations with    4 CG line minimizations
 -2.6187E+00 -1.3602E+00 -1.3536E+00 -1.3536E+00  2.6713E-01  3.6424E-01
  3.7666E-01  3.7666E-01  4.3058E-01  4.3058E-01
 Total charge density [el/Bohr^3]
      Maximum=    1.8350E+00  at reduced coord.    0.1500    0.8750    0.9750
      Minimum=    1.8615E-02  at reduced coord.    0.5000    0.5000    0.5000
   Integrated=    1.8000E+01
 ETOT  4  -135.47582706739    -3.849E-05 1.490E-06 2.060E-02
 scprqt: <Vxc>= -5.0472056E-01 hartree

 Pulay update with  3 previous iterations:
 mixing of old trial potential : alpha(m:m-4)=   1.26     -0.226     -0.196E-01 -0.182E-01
 scfcv: previous iteration took 00 [s]

 ITER STEP NUMBER     5
 vtorho : nnsclo_now=1, note that nnsclo,dbl_nnsclo,istep=0 0 5
 non-scf iterations; kpt #     1  , k= ( -0.25000  0.50000  0.00000  ), band residuals:
 res:  6.60E-10  3.27E-09  5.41E-10  8.24E-11  1.32E-08  1.20E-08  3.19E-08  8.02E-10
 res:  9.97E-10  6.44E-08
 ene: -2.62E+00 -1.37E+00 -1.36E+00 -1.36E+00  2.99E-01  3.28E-01  3.84E-01  4.11E-01
 ene:  4.74E-01  6.06E-01
 vtowfk : number of one-way 3D ffts skipped in vtowfk until now =9
     eigenvalues (hartree) for   10  bands
              after    2 non-SCF iterations with    4 CG line minimizations
 -2.6171E+00 -1.3651E+00 -1.3585E+00 -1.3563E+00  2.9932E-01  3.2762E-01
  3.8365E-01  4.1108E-01  4.7371E-01  6.0560E-01
 non-scf iterations; kpt #     2  , k= ( -0.25000  0.00000  0.00000  ), band residuals:
 res:  1.40E-09  1.61E-09  3.35E-11  3.35E-11  1.84E-08  1.85E-08  3.96E-10  3.97E-10
 res:  2.31E-10  2.31E-10
 ene: -2.62E+00 -1.36E+00 -1.35E+00 -1.35E+00  2.67E-01  3.64E-01  3.77E-01  3.77E-01
 ene:  4.31E-01  4.31E-01
 vtowfk : number of one-way 3D ffts skipped in vtowfk until now =10
     eigenvalues (hartree) for   10  bands
              after    2 non-SCF iterations with    4 CG line minimizations
 -2.6185E+00 -1.3601E+00 -1.3534E+00 -1.3534E+00  2.6694E-01  3.6422E-01
  3.7676E-01  3.7676E-01  4.3072E-01  4.3072E-01
 Total charge density [el/Bohr^3]
      Maximum=    1.8347E+00  at reduced coord.    0.1500    0.8750    0.9750
      Minimum=    1.8649E-02  at reduced coord.    0.5000    0.5000    0.5000
   Integrated=    1.8000E+01
 ETOT  5  -135.47582858883    -1.521E-06 6.440E-08 2.097E-04
 scprqt: <Vxc>= -5.0480360E-01 hartree

 Pulay update with  4 previous iterations:
 mixing of old trial potential : alpha(m:m-4)=  0.979     -0.476E-03  0.198E-01  0.100E-02  0.847E-03
 scfcv: previous iteration took 00 [s]

 ITER STEP NUMBER     6
 vtorho : nnsclo_now=1, note that nnsclo,dbl_nnsclo,istep=0 0 6
 non-scf iterations; kpt #     1  , k= ( -0.25000  0.50000  0.00000  ), band residuals:
 res:  8.36E-12  1.90E-11  6.57E-12  3.57E-12  1.57E-10  1.23E-10  3.94E-10  1.14E-11
 res:  1.98E-11  8.60E-10
 ene: -2.62E+00 -1.37E+00 -1.36E+00 -1.36E+00  2.99E-01  3.28E-01  3.84E-01  4.11E-01
 ene:  4.74E-01  6.06E-01
 vtowfk : number of one-way 3D ffts skipped in vtowfk until now =11
     eigenvalues (hartree) for   10  bands
              after    2 non-SCF iterations with    4 CG line minimizations
 -2.6172E+00 -1.3652E+00 -1.3586E+00 -1.3564E+00  2.9922E-01  3.2752E-01
  3.8355E-01  4.1096E-01  4.7358E-01  6.0550E-01
 non-scf iterations; kpt #     2  , k= ( -0.25000  0.00000  0.00000  ), band residuals:
 res:  8.34E-12  1.25E-11  3.34E-12  3.34E-12  2.23E-10  2.35E-10  5.12E-12  5.12E-12
 res:  2.61E-12  2.61E-12
 ene: -2.62E+00 -1.36E+00 -1.35E+00 -1.35E+00  2.67E-01  3.64E-01  3.77E-01  3.77E-01
 ene:  4.31E-01  4.31E-01
 vtowfk : number of one-way 3D ffts skipped in vtowfk until now =12
     eigenvalues (hartree) for   10  bands
              after    2 non-SCF iterations with    4 CG line minimizations
 -2.6186E+00 -1.3602E+00 -1.3536E+00 -1.3536E+00  2.6686E-01  3.6412E-01
  3.7664E-01  3.7664E-01  4.3060E-01  4.3060E-01
 Total charge density [el/Bohr^3]
      Maximum=    1.8347E+00  at reduced coord.    0.1500    0.8750    0.9750
      Minimum=    1.8646E-02  at reduced coord.    0.5000    0.5000    0.5000
   Integrated=    1.8000E+01
 ETOT  6  -135.47582860631    -1.748E-08 8.601E-10 4.731E-07
 scprqt: <Vxc>= -5.0479528E-01 hartree

 Pulay update with  5 previous iterations:
 mixing of old trial potential : alpha(m:m-4)=   1.03     -0.200E-01 -0.777E-02 -0.186E-03  0.756E-04
 scfcv: previous iteration took 00 [s]

 ITER STEP NUMBER     7
 vtorho : nnsclo_now=1, note that nnsclo,dbl_nnsclo,istep=0 0 7
 non-scf iterations; kpt #     1  , k= ( -0.25000  0.50000  0.00000  ), band residuals:
 res:  8.68E-14  7.90E-14  2.67E-14  1.75E-14  1.70E-13  1.64E-13  3.39E-13  1.02E-13
 res:  1.68E-13  1.33E-11
 ene: -2.62E+00 -1.37E+00 -1.36E+00 -1.36E+00  2.99E-01  3.28E-01  3.84E-01  4.11E-01
 ene:  4.74E-01  6.06E-01
 vtowfk : number of one-way 3D ffts skipped in vtowfk until now =13
     eigenvalues (hartree) for   10  bands
              after    2 non-SCF iterations with    4 CG line minimizations
 -2.6172E+00 -1.3652E+00 -1.3586E+00 -1.3564E+00  2.9923E-01  3.2753E-01
  3.8356E-01  4.1097E-01  4.7359E-01  6.0551E-01
 non-scf iterations; kpt #     2  , k= ( -0.25000  0.00000  0.00000  ), band residuals:
 res:  1.56E-13  3.66E-14  1.89E-14  1.89E-14  3.48E-13  2.65E-13  6.29E-15  6.29E-15
 res:  7.61E-15  7.61E-15
 ene: -2.62E+00 -1.36E+00 -1.35E+00 -1.35E+00  2.67E-01  3.64E-01  3.77E-01  3.77E-01
 ene:  4.31E-01  4.31E-01
 vtowfk : number of one-way 3D ffts skipped in vtowfk until now =14
     eigenvalues (hartree) for   10  bands
              after    2 non-SCF iterations with    4 CG line minimizations
 -2.6186E+00 -1.3602E+00 -1.3535E+00 -1.3535E+00  2.6686E-01  3.6412E-01
  3.7665E-01  3.7665E-01  4.3061E-01  4.3061E-01
 Total charge density [el/Bohr^3]
      Maximum=    1.8347E+00  at reduced coord.    0.1500    0.8750    0.9750
      Minimum=    1.8646E-02  at reduced coord.    0.5000    0.5000    0.5000
   Integrated=    1.8000E+01
 ETOT  7  -135.47582860634    -2.748E-11 1.331E-11 2.423E-08
 scprqt: <Vxc>= -5.0479546E-01 hartree

 At SCF step    7, etot is converged : 
  for the second time, diff in etot=  2.748E-11 < toldfe=  1.000E-06

 Cartesian components of stress tensor (hartree/bohr^3)
  sigma(1 1)= -5.53470964E-04  sigma(3 2)=  0.00000000E+00
  sigma(2 2)= -5.53470964E-04  sigma(3 1)=  0.00000000E+00
  sigma(3 3)= -5.53470964E-04  sigma(2 1)=  0.00000000E+00

 fftdatar_write: About to write data to: PdDOS_o_DEN with iomode IO_MODE_FORTRAN
 IO operation completed. cpu_time:       0.0 [s], walltime:       0.0 [s]
 tetrahedron : integrate to  2.00000000E+01
 tetrahedron: cpu_time:     0.02[s], walltime:     0.14 [s]
================================================================================

 ----iterations are completed or convergence reached----

 Mean square residual over all n,k,spin=   7.6682E-13; max=  1.3312E-11
  -0.2500  0.5000  0.0000    1  1.33121E-11 kpt; spin; max resid(k); each band:
  8.68E-14 7.90E-14 2.67E-14 1.75E-14 1.70E-13 1.64E-13 3.39E-13 1.02E-13
  1.68E-13 1.33E-11
  -0.2500  0.0000  0.0000    1  3.47780E-13 kpt; spin; max resid(k); each band:
  1.56E-13 3.66E-14 1.89E-14 1.89E-14 3.48E-13 2.65E-13 6.29E-15 6.29E-15
  7.61E-15 7.61E-15

 outwf: write wavefunction to file PdDOS_o_WFK, with iomode -1
 outwf with iomode: -1, cpu_time:     0.00[s], walltime:     0.01 [s]
 prteigrs : about to open file PdDOS_o_EIG
 Fermi (or HOMO) energy (hartree) =   0.47359   Average Vxc (hartree)=  -0.50480
 Eigenvalues (hartree) for nkpt=   2  k points:
 kpt#   1, nband= 10, wtk=  0.75000, kpt= -0.2500  0.5000  0.0000 (reduced coord)
  -2.61721   -1.36518   -1.35863   -1.35641    0.29923    0.32753    0.38356    0.41097
   0.47359    0.60551
 kpt#   2, nband= 10, wtk=  0.25000, kpt= -0.2500  0.0000  0.0000 (reduced coord)
  -2.61857   -1.36018   -1.35354   -1.35354    0.26686    0.36412    0.37665    0.37665
   0.43061    0.43061
 Total charge density [el/Bohr^3]
      Maximum=    1.8347E+00  at reduced coord.    0.1500    0.8750    0.9750
 Next maximum=    1.8347E+00  at reduced coord.    0.0000    0.8750    0.9750
      Minimum=    1.8646E-02  at reduced coord.    0.5000    0.5000    0.5000
 Next minimum=    1.8741E-02  at reduced coord.    0.5000    0.5000    0.4750
   Integrated=    1.8000E+01

 Cartesian components of stress tensor (hartree/bohr^3)
  sigma(1 1)= -5.53470964E-04  sigma(3 2)=  0.00000000E+00
  sigma(2 2)= -5.53470964E-04  sigma(3 1)=  0.00000000E+00
  sigma(3 3)= -5.53470964E-04  sigma(2 1)=  0.00000000E+00

-Cartesian components of stress tensor (GPa)         [Pressure=  1.6284E+01 GPa]
- sigma(1 1)= -1.62836752E+01  sigma(3 2)=  0.00000000E+00
- sigma(2 2)= -1.62836752E+01  sigma(3 1)=  0.00000000E+00
- sigma(3 3)= -1.62836752E+01  sigma(2 1)=  0.00000000E+00

== END DATASET(S) ==============================================================
================================================================================
  
 -outvars: echo values of variables after computation  --------
            acell      7.3524000000E+00  7.3524000000E+00  7.3524000000E+00 Bohr
              amu      1.06420000E+02
           diemac      1.20000000E+01
             ecut      6.00000000E+01 Hartree
           etotal     -1.3547582861E+02
            fcart     -0.0000000000E+00 -0.0000000000E+00 -0.0000000000E+00
-          fftalg         112
           getwfk          -1
              ixc          11
              kpt     -2.50000000E-01  5.00000000E-01  0.00000000E+00
                      -2.50000000E-01  0.00000000E+00  0.00000000E+00
         kptrlatt        2   -2    2     -2    2    2     -2   -2    2
          kptrlen      1.47048000E+01
P           mkmem           2
            natom           1
            nband          10
            ngfft          40      40      40
             nkpt           2
            nstep          40
             nsym          48
           ntypat           1
              occ      2.000000  2.000000  2.000000  2.000000  2.000000  2.000000
                       2.000000  2.000000  2.000000  0.000000
           prtdos           2
            rprim      0.0000000000E+00  5.0000000000E-01  5.0000000000E-01
                       5.0000000000E-01  0.0000000000E+00  5.0000000000E-01
                       5.0000000000E-01  5.0000000000E-01  0.0000000000E+00
           shiftk      5.00000000E-01  5.00000000E-01  5.00000000E-01
          spgroup         225
           strten     -5.5347096353E-04 -5.5347096353E-04 -5.5347096353E-04
                       0.0000000000E+00  0.0000000000E+00  0.0000000000E+00
           symrel      1  0  0   0  1  0   0  0  1      -1  0  0   0 -1  0   0  0 -1
                       0 -1  1   0 -1  0   1 -1  0       0  1 -1   0  1  0  -1  1  0
                      -1  0  0  -1  0  1  -1  1  0       1  0  0   1  0 -1   1 -1  0
                       0  1 -1   1  0 -1   0  0 -1       0 -1  1  -1  0  1   0  0  1
                      -1  0  0  -1  1  0  -1  0  1       1  0  0   1 -1  0   1  0 -1
                       0 -1  1   1 -1  0   0 -1  0       0  1 -1  -1  1  0   0  1  0
                       1  0  0   0  0  1   0  1  0      -1  0  0   0  0 -1   0 -1  0
                       0  1 -1   0  0 -1   1  0 -1       0 -1  1   0  0  1  -1  0  1
                      -1  0  1  -1  1  0  -1  0  0       1  0 -1   1 -1  0   1  0  0
                       0 -1  0   1 -1  0   0 -1  1       0  1  0  -1  1  0   0  1 -1
                       1  0 -1   0  0 -1   0  1 -1      -1  0  1   0  0  1   0 -1  1
                       0  1  0   0  0  1   1  0  0       0 -1  0   0  0 -1  -1  0  0
                       1  0 -1   0  1 -1   0  0 -1      -1  0  1   0 -1  1   0  0  1
                       0 -1  0   0 -1  1   1 -1  0       0  1  0   0  1 -1  -1  1  0
                      -1  0  1  -1  0  0  -1  1  0       1  0 -1   1  0  0   1 -1  0
                       0  1  0   1  0  0   0  0  1       0 -1  0  -1  0  0   0  0 -1
                       0  0 -1   0  1 -1   1  0 -1       0  0  1   0 -1  1  -1  0  1
                       1 -1  0   0 -1  1   0 -1  0      -1  1  0   0  1 -1   0  1  0
                       0  0  1   1  0  0   0  1  0       0  0 -1  -1  0  0   0 -1  0
                      -1  1  0  -1  0  0  -1  0  1       1 -1  0   1  0  0   1  0 -1
                       0  0  1   0  1  0   1  0  0       0  0 -1   0 -1  0  -1  0  0
                       1 -1  0   0 -1  0   0 -1  1      -1  1  0   0  1  0   0  1 -1
                       0  0 -1   1  0 -1   0  1 -1       0  0  1  -1  0  1   0 -1  1
                      -1  1  0  -1  0  1  -1  0  0       1 -1  0   1  0 -1   1  0  0
           toldfe      1.00000000E-06 Hartree
            typat      1
              wtk        0.75000    0.25000
            znucl       46.00000

================================================================================
  

================================================================================

 Suggested references for the acknowledgment of ABINIT usage.

 The users of ABINIT have little formal obligations with respect to the ABINIT group
 (those specified in the GNU General Public License, http://www.gnu.org/copyleft/gpl.txt).
 However, it is common practice in the scientific literature,
 to acknowledge the efforts of people that have made the research possible.
 In this spirit, please find below suggested citations of work written by ABINIT developers,
 corresponding to implementations inside of ABINIT that you have used in the present run.
 Note also that it will be of great value to readers of publications presenting these results,
 to read papers enabling them to understand the theoretical formalism and details
 of the ABINIT implementation.
 For information on why they are suggested, see also https://www.abinit.org/about/?text=acknowledgments.
-
- [1] Recent developments in the ABINIT software package.
- Computer Phys. Comm. 205, 106 (2016).
- X.Gonze, F.Jollet, F.Abreu Araujo, D.Adams, B.Amadon, T.Applencourt,
- C.Audouze, J.-M.Beuken, J.Bieder, A.Bokhanchuk, E.Bousquet, F.Bruneval
- D.Caliste, M.Cote, F.Dahm, F.Da Pieve, M.Delaveau, M.Di Gennaro,
- B.Dorado, C.Espejo, G.Geneste, L.Genovese, A.Gerossier, M.Giantomassi,
- Y.Gillet, D.R.Hamann, L.He, G.Jomard, J.Laflamme Janssen, S.Le Roux,
- A.Levitt, A.Lherbier, F.Liu, I.Lukacevic, A.Martin, C.Martins,
- M.J.T.Oliveira, S.Ponce, Y.Pouillon, T.Rangel, G.-M.Rignanese,
- A.H.Romero, B.Rousseau, O.Rubel, A.A.Shukri, M.Stankovski, M.Torrent,
- M.J.Van Setten, B.Van Troeye, M.J.Verstraete, D.Waroquier, J.Wiktor,
- B.Xue, A.Zhou, J.W.Zwanziger.
- Comment : the fourth generic paper describing the ABINIT project.
- Note that a version of this paper, that is not formatted for Computer Phys. Comm. 
- is available at https://www.abinit.org/about/ABINIT16.pdf .
- The licence allows the authors to put it on the Web.
-
- [2] Optimized norm-conserving Vanderbilt pseudopotentials.
- D.R. Hamann, Phys. Rev. B 88, 085117 (2013).
- Comment: Some pseudopotential generated using the ONCVPSP code were used.
-
- [3] ABINIT : First-principles approach of materials and nanosystem properties.
- Computer Phys. Comm. 180, 2582-2615 (2009).
- X. Gonze, B. Amadon, P.-M. Anglade, J.-M. Beuken, F. Bottin, P. Boulanger, F. Bruneval,
- D. Caliste, R. Caracas, M. Cote, T. Deutsch, L. Genovese, Ph. Ghosez, M. Giantomassi
- S. Goedecker, D.R. Hamann, P. Hermet, F. Jollet, G. Jomard, S. Leroux, M. Mancini, S. Mazevet,
- M.J.T. Oliveira, G. Onida, Y. Pouillon, T. Rangel, G.-M. Rignanese, D. Sangalli, R. Shaltaf,
- M. Torrent, M.J. Verstraete, G. Zerah, J.W. Zwanziger
- Comment : the third generic paper describing the ABINIT project.
- Note that a version of this paper, that is not formatted for Computer Phys. Comm. 
- is available at https://www.abinit.org/about/ABINIT_CPC_v10.pdf .
- The licence allows the authors to put it on the Web.
-
- [4] A brief introduction to the ABINIT software package.
- Z. Kristallogr. 220, 558-562 (2005).
- X. Gonze, G.-M. Rignanese, M. Verstraete, J.-M. Beuken, Y. Pouillon, R. Caracas, F. Jollet,
- M. Torrent, G. Zerah, M. Mikami, Ph. Ghosez, M. Veithen, J.-Y. Raty, V. Olevano, F. Bruneval,
- L. Reining, R. Godby, G. Onida, D.R. Hamann, and D.C. Allan.
- Comment : the second generic paper describing the ABINIT project. Note that this paper
- should be cited especially if you are using the GW part of ABINIT, as several authors
- of this part are not in the list of authors of the first or third paper.
- The .pdf of the latter paper is available at https://www.abinit.org/about/zfk_0505-06_558-562.pdf.
- Note that it should not redistributed (Copyright by Oldenburg Wissenshaftverlag,
- the licence allows the authors to put it on the Web).
-
- And optionally:
-
- [5] First-principles computation of material properties : the ABINIT software project. 
- X. Gonze, J.-M. Beuken, R. Caracas, F. Detraux, M. Fuchs, G.-M. Rignanese, L. Sindic,
- M. Verstraete, G. Zerah, F. Jollet, M. Torrent, A. Roy, M. Mikami, Ph. Ghosez, J.-Y. Raty, D.C. Allan.
- Computational Materials Science 25, 478-492 (2002). http://dx.doi.org/10.1016/S0927-0256(02)00325-7
- Comment : the original paper describing the ABINIT project.

 Calculation completed.
.Delivered   0 WARNINGs and   2 COMMENTs to log file.

--- !FinalSummary
program: abinit
version: 8.6.3
start_datetime: Fri Apr 27 21:53:55 2018
end_datetime: Fri Apr 27 21:53:58 2018
overall_cpu_time:           2.5
overall_wall_time:           3.1
exit_requested_by_user: no 
timelimit: 0
pseudos: 
    Pd  : 4144628137bc01fa80f914e5e2c5b797
usepaw: 0
mpi_procs: 1
omp_threads: 1
num_warnings: 0
num_comments: 2
...
