  ABINIT 8.6.3
  
  Give name for formatted input file: 
PdBase.in
  Give name for formatted output file:
PdBase.out
  Give root name for generic input files:
PdBase_i
  Give root name for generic output files:
PdBase_o
  Give root name for generic temporary files:
PdBase

--- !COMMENT
src_file: isfile.F90
src_line: 109
message: |
    Output file PdBase.out
     already exists.
...


--- !COMMENT
src_file: isfile.F90
src_line: 133
message: |
    Renaming old PdBase.out to PdBase.out0001
...


.Version 8.6.3 of ABINIT 
.(sequential version, prepared for a x86_64_linux_gnu5.4 computer) 

.Copyright (C) 1998-2017 ABINIT group . 
 ABINIT comes with ABSOLUTELY NO WARRANTY.
 It is free software, and you are welcome to redistribute it
 under certain conditions (GNU General Public License,
 see ~abinit/COPYING or http://www.gnu.org/copyleft/gpl.txt).

 ABINIT is a project of the Universite Catholique de Louvain,
 Corning Inc. and other collaborators, see ~abinit/doc/developers/contributors.txt .
 Please read ~abinit/doc/users/acknowledgments.html for suggested
 acknowledgments of the ABINIT effort.
 For more information, see https://www.abinit.org .

.Starting date : Sat 21 Apr 2018.
- ( at 09h16 )
  

 ++++++++++++++++++++++++++++++++++++++++++++++++++++++++++++++++++++++++++++++

 === Build Information === 
  Version       : 8.6.3
  Build target  : x86_64_linux_gnu5.4
  Build date    : 20180412

 === Compiler Suite === 
  C compiler       : gnu5.4
  C++ compiler     : gnu5.4
  Fortran compiler : gnu5.4
  CFLAGS           :  -g -O2 -mtune=native -march=native
  CXXFLAGS         :  -g -O2 -mtune=native -march=native
  FCFLAGS          :  -g -ffree-line-length-none
  FC_LDFLAGS       : 

 === Optimizations === 
  Debug level        : basic
  Optimization level : standard
  Architecture       : unknown_unknown

 === Multicore === 
  Parallel build : no
  Parallel I/O   : no
  openMP support : no
  GPU support    : no

 === Connectors / Fallbacks === 
  Connectors on : yes
  Fallbacks on  : yes
  DFT flavor    : none
  FFT flavor    : none
  LINALG flavor : netlib-fallback
  MATH flavor   : none
  TIMER flavor  : abinit
  TRIO flavor   : none

 === Experimental features === 
  Bindings            : @enable_bindings@
  Exports             : no
  GW double-precision : no

 ++++++++++++++++++++++++++++++++++++++++++++++++++++++++++++++++++++++++++++++


 ++++++++++++++++++++++++++++++++++++++++++++++++++++++++++++++++++++++++++++++
 Default optimizations:
   -O2 -mtune=native -march=native


 Optimizations for 20_datashare:
   -O0


 ++++++++++++++++++++++++++++++++++++++++++++++++++++++++++++++++++++++++++++++


 ++++++++++++++++++++++++++++++++++++++++++++++++++++++++++++++++++++++++++++++
 CPP options activated during the build:

                    CC_GNU                   CXX_GNU                    FC_GNU
 
 HAVE_FC_ALLOCATABLE_DT...             HAVE_FC_ASYNC         HAVE_FC_BACKTRACE
 
  HAVE_FC_COMMAND_ARGUMENT      HAVE_FC_COMMAND_LINE        HAVE_FC_CONTIGUOUS
 
           HAVE_FC_CPUTIME              HAVE_FC_EXIT             HAVE_FC_FLUSH
 
             HAVE_FC_GAMMA            HAVE_FC_GETENV   HAVE_FC_IEEE_EXCEPTIONS
 
          HAVE_FC_INT_QUAD             HAVE_FC_IOMSG     HAVE_FC_ISO_C_BINDING
 
  HAVE_FC_ISO_FORTRAN_2008        HAVE_FC_LONG_LINES        HAVE_FC_MOVE_ALLOC
 
           HAVE_FC_PRIVATE         HAVE_FC_PROTECTED         HAVE_FC_STREAM_IO
 
            HAVE_FC_SYSTEM          HAVE_FORTRAN2003        HAVE_LIBPAW_ABINIT
 
      HAVE_LIBTETRA_ABINIT             HAVE_OS_LINUX         HAVE_TIMER_ABINIT
 
              USE_MACROAVE                                                      
 ++++++++++++++++++++++++++++++++++++++++++++++++++++++++++++++++++++++++++++++

- input  file    -> PdBase.in
- output file    -> PdBase.out
- root for input  files -> PdBase_i
- root for output files -> PdBase_o

-instrng: 88 lines of input have been read from file PdBase.in


 Please give name of formatted atomic psp file
 iofn2 : for atom type 1, psp file is ../../../Psps_for_tests/Pd.psp8
  read the values zionpsp= 18.0 , pspcod=   8 , lmax=   2

 inpspheads: deduce mpsang = 3, n1xccc = 2501.
 invars1 : treat image number: 1

 symlatt : the Bravais lattice is cF (face-centered cubic)
  xred   is defined in input file
 ingeo : takes atomic coordinates from input array xred
 symfind : exit, nsym=48
   symrel matrices, symafm and tnons are :
   1       1   0   0     0   1   0     0   0   1       1      0.0000  0.0000  0.0000
   2      -1   0   0     0  -1   0     0   0  -1       1      0.0000  0.0000  0.0000
   3       0  -1   1     0  -1   0     1  -1   0       1      0.0000  0.0000  0.0000
   4       0   1  -1     0   1   0    -1   1   0       1      0.0000  0.0000  0.0000
   5      -1   0   0    -1   0   1    -1   1   0       1      0.0000  0.0000  0.0000
   6       1   0   0     1   0  -1     1  -1   0       1      0.0000  0.0000  0.0000
   7       0   1  -1     1   0  -1     0   0  -1       1      0.0000  0.0000  0.0000
   8       0  -1   1    -1   0   1     0   0   1       1      0.0000  0.0000  0.0000
   9      -1   0   0    -1   1   0    -1   0   1       1      0.0000  0.0000  0.0000
  10       1   0   0     1  -1   0     1   0  -1       1      0.0000  0.0000  0.0000
  11       0  -1   1     1  -1   0     0  -1   0       1      0.0000  0.0000  0.0000
  12       0   1  -1    -1   1   0     0   1   0       1      0.0000  0.0000  0.0000
  13       1   0   0     0   0   1     0   1   0       1      0.0000  0.0000  0.0000
  14      -1   0   0     0   0  -1     0  -1   0       1      0.0000  0.0000  0.0000
  15       0   1  -1     0   0  -1     1   0  -1       1      0.0000  0.0000  0.0000
  16       0  -1   1     0   0   1    -1   0   1       1      0.0000  0.0000  0.0000
  17      -1   0   1    -1   1   0    -1   0   0       1      0.0000  0.0000  0.0000
  18       1   0  -1     1  -1   0     1   0   0       1      0.0000  0.0000  0.0000
  19       0  -1   0     1  -1   0     0  -1   1       1      0.0000  0.0000  0.0000
  20       0   1   0    -1   1   0     0   1  -1       1      0.0000  0.0000  0.0000
  21       1   0  -1     0   0  -1     0   1  -1       1      0.0000  0.0000  0.0000
  22      -1   0   1     0   0   1     0  -1   1       1      0.0000  0.0000  0.0000
  23       0   1   0     0   0   1     1   0   0       1      0.0000  0.0000  0.0000
  24       0  -1   0     0   0  -1    -1   0   0       1      0.0000  0.0000  0.0000
  25       1   0  -1     0   1  -1     0   0  -1       1      0.0000  0.0000  0.0000
  26      -1   0   1     0  -1   1     0   0   1       1      0.0000  0.0000  0.0000
  27       0  -1   0     0  -1   1     1  -1   0       1      0.0000  0.0000  0.0000
  28       0   1   0     0   1  -1    -1   1   0       1      0.0000  0.0000  0.0000
  29      -1   0   1    -1   0   0    -1   1   0       1      0.0000  0.0000  0.0000
  30       1   0  -1     1   0   0     1  -1   0       1      0.0000  0.0000  0.0000
  31       0   1   0     1   0   0     0   0   1       1      0.0000  0.0000  0.0000
  32       0  -1   0    -1   0   0     0   0  -1       1      0.0000  0.0000  0.0000
  33       0   0  -1     0   1  -1     1   0  -1       1      0.0000  0.0000  0.0000
  34       0   0   1     0  -1   1    -1   0   1       1      0.0000  0.0000  0.0000
  35       1  -1   0     0  -1   1     0  -1   0       1      0.0000  0.0000  0.0000
  36      -1   1   0     0   1  -1     0   1   0       1      0.0000  0.0000  0.0000
  37       0   0   1     1   0   0     0   1   0       1      0.0000  0.0000  0.0000
  38       0   0  -1    -1   0   0     0  -1   0       1      0.0000  0.0000  0.0000
  39      -1   1   0    -1   0   0    -1   0   1       1      0.0000  0.0000  0.0000
  40       1  -1   0     1   0   0     1   0  -1       1      0.0000  0.0000  0.0000
  41       0   0   1     0   1   0     1   0   0       1      0.0000  0.0000  0.0000
  42       0   0  -1     0  -1   0    -1   0   0       1      0.0000  0.0000  0.0000
  43       1  -1   0     0  -1   0     0  -1   1       1      0.0000  0.0000  0.0000
  44      -1   1   0     0   1   0     0   1  -1       1      0.0000  0.0000  0.0000
  45       0   0  -1     1   0  -1     0   1  -1       1      0.0000  0.0000  0.0000
  46       0   0   1    -1   0   1     0  -1   1       1      0.0000  0.0000  0.0000
  47      -1   1   0    -1   0   1    -1   0   0       1      0.0000  0.0000  0.0000
  48       1  -1   0     1   0  -1     1   0   0       1      0.0000  0.0000  0.0000

 symlatt : the Bravais lattice is cF (face-centered cubic)

 symlatt : the Bravais lattice is cF (face-centered cubic)
 symspgr : spgroup= 225  Fm -3 m   (=Oh^5)
 symspgr : optical characteristics = isotropic
 ingeo : angdeg(1:3)=   60.00000000   60.00000000   60.00000000
 invars2: take the default value of fband=  1.25000000E-01
 chkneu : initialized the occupation numbers for occopt=    1, spin-unpolarized or antiferromagnetic case :
  2.00  2.00  2.00  2.00  2.00  2.00  2.00  2.00  2.00  0.00
mpi_setup: mkmem  undefined in the input file.Use default mkmem  = nkpt
 mpi_setup: With nkpt_me=2 and mkmem  = 2, ground state wf handled in core.
mpi_setup: mkqmem undefined in the input file.Use default mkqmem = nkpt
 mpi_setup: With nkpt_me=2 and mkqmem = 2, ground state wf handled in core.
mpi_setup: mk1mem undefined in the input file.Use default mk1mem = nkpt
 mpi_setup: With nkpt_me=2 and mk1mem = 2, ground state wf handled in core.
 For input ecut=  8.000000E+00 best grid ngfft=      15      15      15
       max ecut=  9.043369E+00

 ==== FFT mesh ====
  FFT mesh divisions ........................    15   15   15
  Augmented FFT divisions ...................    15   15   15
  FFT algorithm .............................   112
  FFT cache size ............................    16
 getmpw: optimal value of mpw= 108

 Symmetries : space group Fm -3 m (#225); Bravais cF (face-center cubic)

 getdim_nloc : deduce lmnmax  =  18, lnmax  =   6,
                      lmnmaxso=  18, lnmaxso=   6.
memory : analysis of memory needs
================================================================================
 Values of the parameters that define the memory need of the present run
     intxc =       0    ionmov =       0      iscf =       7    lmnmax =       6
     lnmax =       6     mgfft =      15  mpssoang =       3    mqgrid =    3001
     natom =       1  nloc_mem =       1    nspden =       1   nspinor =       1
    nsppol =       1      nsym =      48    n1xccc =    2501    ntypat =       1
    occopt =       1   xclevel =       2
-    mband =          10        mffmem =           1         mkmem =           2
       mpw =         108          nfft =        3375          nkpt =           2
================================================================================
P This job should need less than                       1.832 Mbytes of memory.
  Rough estimation (10% accuracy) of disk space for files :
_ WF disk file :      0.035 Mbytes ; DEN or POT disk file :      0.028 Mbytes.
================================================================================

 Biggest array : f_fftgr(disk), with      0.4140 MBytes.
 memana : allocated an array of      0.414 Mbytes, for testing purposes.
 memana: allocated       1.832Mbytes, for testing purposes. 
 The job will continue.
--------------------------------------------------------------------------------
------------- Echo of variables that govern the present computation ------------
--------------------------------------------------------------------------------
-
- outvars: echo of selected default values                                      
-   iomode0 =  0 , fftalg0 =112 , wfoptalg0 =  0
-
- outvars: echo of global parameters not present in the input file              
-  max_nthreads =    0
-
 -outvars: echo values of preprocessed input variables --------
            acell      7.3500000000E+00  7.3500000000E+00  7.3500000000E+00 Bohr
              amu      1.06420000E+02
           diemac      1.20000000E+01
             ecut      8.00000000E+00 Hartree
-          fftalg         112
           getwfk          -1
              ixc          11
              kpt     -2.50000000E-01  5.00000000E-01  0.00000000E+00
                      -2.50000000E-01  0.00000000E+00  0.00000000E+00
         kptrlatt        2   -2    2     -2    2    2     -2   -2    2
          kptrlen      1.47000000E+01
P           mkmem           2
            natom           1
            nband          10
            ngfft          15      15      15
             nkpt           2
            nstep          10
             nsym          48
           ntypat           1
              occ      2.000000  2.000000  2.000000  2.000000  2.000000  2.000000
                       2.000000  2.000000  2.000000  0.000000
            rprim      0.0000000000E+00  5.0000000000E-01  5.0000000000E-01
                       5.0000000000E-01  0.0000000000E+00  5.0000000000E-01
                       5.0000000000E-01  5.0000000000E-01  0.0000000000E+00
           shiftk      5.00000000E-01  5.00000000E-01  5.00000000E-01
          spgroup         225
           symrel      1  0  0   0  1  0   0  0  1      -1  0  0   0 -1  0   0  0 -1
                       0 -1  1   0 -1  0   1 -1  0       0  1 -1   0  1  0  -1  1  0
                      -1  0  0  -1  0  1  -1  1  0       1  0  0   1  0 -1   1 -1  0
                       0  1 -1   1  0 -1   0  0 -1       0 -1  1  -1  0  1   0  0  1
                      -1  0  0  -1  1  0  -1  0  1       1  0  0   1 -1  0   1  0 -1
                       0 -1  1   1 -1  0   0 -1  0       0  1 -1  -1  1  0   0  1  0
                       1  0  0   0  0  1   0  1  0      -1  0  0   0  0 -1   0 -1  0
                       0  1 -1   0  0 -1   1  0 -1       0 -1  1   0  0  1  -1  0  1
                      -1  0  1  -1  1  0  -1  0  0       1  0 -1   1 -1  0   1  0  0
                       0 -1  0   1 -1  0   0 -1  1       0  1  0  -1  1  0   0  1 -1
                       1  0 -1   0  0 -1   0  1 -1      -1  0  1   0  0  1   0 -1  1
                       0  1  0   0  0  1   1  0  0       0 -1  0   0  0 -1  -1  0  0
                       1  0 -1   0  1 -1   0  0 -1      -1  0  1   0 -1  1   0  0  1
                       0 -1  0   0 -1  1   1 -1  0       0  1  0   0  1 -1  -1  1  0
                      -1  0  1  -1  0  0  -1  1  0       1  0 -1   1  0  0   1 -1  0
                       0  1  0   1  0  0   0  0  1       0 -1  0  -1  0  0   0  0 -1
                       0  0 -1   0  1 -1   1  0 -1       0  0  1   0 -1  1  -1  0  1
                       1 -1  0   0 -1  1   0 -1  0      -1  1  0   0  1 -1   0  1  0
                       0  0  1   1  0  0   0  1  0       0  0 -1  -1  0  0   0 -1  0
                      -1  1  0  -1  0  0  -1  0  1       1 -1  0   1  0  0   1  0 -1
                       0  0  1   0  1  0   1  0  0       0  0 -1   0 -1  0  -1  0  0
                       1 -1  0   0 -1  0   0 -1  1      -1  1  0   0  1  0   0  1 -1
                       0  0 -1   1  0 -1   0  1 -1       0  0  1  -1  0  1   0 -1  1
                      -1  1  0  -1  0  1  -1  0  0       1 -1  0   1  0 -1   1  0  0
           toldfe      1.00000000E-06 Hartree
            typat      1
              wtk        0.75000    0.25000
            znucl       46.00000

================================================================================

 chkinp: Checking input parameters for consistency.
 DATA TYPE INFORMATION: 
 REAL:      Data type name: REAL(DP) 
            Kind value:      8
            Precision:      15
            Smallest nonnegligible quantity relative to 1:  0.22204460E-15
            Smallest positive number:                       0.22250739-307
            Largest representable number:                   0.17976931+309
 INTEGER:   Data type name: INTEGER(default) 
            Kind value: 4
            Bit size:   32
            Largest representable number: 2147483647
 LOGICAL:   Data type name: LOGICAL 
            Kind value: 4
 CHARACTER: Data type name: CHARACTER             Kind value: 1

  ==== OpenMP parallelism is OFF ====
 
  MPI-IO support is OFF

================================================================================
== DATASET  1 ==================================================================
-   nproc =    1


 getdim_nloc : deduce lmnmax  =  18, lnmax  =   6,
                      lmnmaxso=  18, lnmaxso=   6.
 Exchange-correlation functional for the present dataset will be:
  GGA: Perdew-Burke-Ernzerhof functional - ixc=11
 Citation for XC functional:
  J.P.Perdew, K.Burke, M.Ernzerhof, PRL 77, 3865 (1996)

 Unit cell volume ucvol=  9.9266344E+01 bohr^3
 Angles (23,13,12)=  6.00000000E+01  6.00000000E+01  6.00000000E+01 degrees

 getcut: wavevector=  0.0000  0.0000  0.0000  ngfft=  15  15  15
         ecut(hartree)=      8.000   => boxcut(ratio)=   2.12643
- pspini: atom type   1  psp file is ../../../Psps_for_tests/Pd.psp8
- pspatm: opening atomic psp file    ../../../Psps_for_tests/Pd.psp8
- Pd    ONCVPSP-3.2.3.1  r_core=   1.41052   1.46191   1.55175
- 46.00000  18.00000    170510                znucl, zion, pspdat
    8   11    2    4       600   0.00000      pspcod,pspxc,lmax,lloc,mmax,r2well
    5.99000000000000    7.00000000000000    0.00000000000000   rchrg,fchrg,qchrg
     nproj     2     2     2
     extension_switch     1
 valence charge integrates to:    17.981740865694604     
  pspatm : epsatm=   26.09224486
         --- l  ekb(1:nproj) -->
             0    7.845850   -2.282160
             1    3.261104   -0.686948
             2   -1.134855   -0.401224
 pspatm: atomic psp has been read  and splines computed

   4.69660407E+02                                ecore*ucvol(ha*bohr**3)
 ==== Info on pseudopotentials ====
  Norm-conserving pseudopotentials
  Number of pseudopotentials ..    1
  Number of types of atoms   ..    1
  Scalar calculation (no spin-orbit term)
  Nonlocal part applied using Legendre polynomials
  Max number of non-local projectors over l and type   2
  Highest angular momentum +1 .......   3
  Max number of (l,n)   components ..   6
  Max number of (l,m,n) components ..   6

 Pseudo-Core Charge Info: 
   Number of radial points for pseudo-core charge .. 2501
   XC core-correction treatment (optnlxccc) ........    1
   Radius for pseudo-core charge for each type ..... 

  - Atom type    1 has pseudo-core radius ..  5.9900

 Info on the Q-grid used for form factors in spline form: 
   Number of q-points for radial functions ffspl ..   3001
   Number of q-points for vlspl ...................   3001
   vloc is computed in Reciprocal Space
   model core charge treated in real-space

  XC functional for type 1 is 11
  Pseudo valence available: yes

 wfconv:    10 bands initialized randomly with npw=   108, for ikpt=     1
 wfconv:    10 bands initialized randomly with npw=   107, for ikpt=     2
_setup2: Arith. and geom. avg. npw (full set) are     107.750     107.749
 initro: for itypat=  1, take pseudo charge density from pp file

================================================================================

 getcut: wavevector=  0.0000  0.0000  0.0000  ngfft=  15  15  15
         ecut(hartree)=      8.000   => boxcut(ratio)=   2.12643

 ITER STEP NUMBER     1
 vtorho : nnsclo_now=2, note that nnsclo,dbl_nnsclo,istep=0 0 1
 non-scf iterations; kpt #     1  , k= ( -0.25000  0.50000  0.00000  ), band residuals:
 res:  1.47E+00  9.38E-01  1.02E+00  8.03E-01  8.39E-01  6.99E-01  8.26E-01  5.65E-01
 res:  6.13E-01  3.59E-01
 ene: -2.24E+00 -1.08E+00 -9.84E-01 -9.00E-01  4.83E-01  5.84E-01  6.93E-01  8.38E-01
 ene:  9.64E-01  1.13E+00
 res:  4.66E-03  1.92E-03  6.04E-03  1.08E-02  1.08E-03  5.01E-03  3.03E-03  1.15E-02
 res:  7.16E-03  2.26E-02
 ene: -2.33E+00 -1.13E+00 -1.12E+00 -1.11E+00  4.50E-01  5.23E-01  5.99E-01  7.38E-01
 ene:  8.96E-01  9.27E-01
 vtowfk : number of one-way 3D ffts skipped in vtowfk until now =1
     eigenvalues (hartree) for   10  bands
              after    3 non-SCF iterations with    4 CG line minimizations
 -2.3273E+00 -1.1252E+00 -1.1185E+00 -1.1128E+00  4.4968E-01  5.2338E-01
  5.9935E-01  7.3826E-01  8.9569E-01  9.2697E-01
 non-scf iterations; kpt #     2  , k= ( -0.25000  0.00000  0.00000  ), band residuals:
 res:  1.55E+00  1.34E+00  1.28E+00  1.13E+00  9.99E-01  5.85E-01  5.72E-01  4.13E-01
 res:  5.09E-01  4.54E-01
 ene: -2.26E+00 -9.87E-01 -9.55E-01 -8.15E-01  3.80E-01  6.49E-01  7.27E-01  8.19E-01
 ene:  8.97E-01  1.05E+00
 res:  3.05E-03  6.12E-03  5.58E-03  1.54E-02  5.20E-03  3.70E-03  7.03E-03  1.24E-02
 res:  5.74E-03  8.25E-03
 ene: -2.33E+00 -1.10E+00 -1.10E+00 -1.09E+00  3.26E-01  6.02E-01  6.70E-01  6.71E-01
 ene:  7.97E-01  7.97E-01
 vtowfk : number of one-way 3D ffts skipped in vtowfk until now =2
     eigenvalues (hartree) for   10  bands
              after    3 non-SCF iterations with    4 CG line minimizations
 -2.3307E+00 -1.1030E+00 -1.1024E+00 -1.0928E+00  3.2636E-01  6.0167E-01
  6.7030E-01  6.7120E-01  7.9684E-01  7.9747E-01
 Total charge density [el/Bohr^3]
      Maximum=    1.0351E+00  at reduced coord.    0.0000    0.1333    0.8667
      Minimum=    4.1198E-02  at reduced coord.    0.5333    0.4667    0.4667
   Integrated=    1.8000E+01
 ETOT  1  -129.24407687252    -1.292E+02 2.261E-02 8.007E+02
 scprqt: <Vxc>= -5.6871525E-01 hartree

Simple mixing update:
  residual square of the potential :   473.18959149198241
 scfcv: previous iteration took 00 [s]

 ITER STEP NUMBER     2
 vtorho : nnsclo_now=2, note that nnsclo,dbl_nnsclo,istep=0 0 2
 non-scf iterations; kpt #     1  , k= ( -0.25000  0.50000  0.00000  ), band residuals:
 res:  4.81E-02  8.33E-02  6.57E-03  2.03E-02  5.54E-02  3.90E-02  3.87E-02  4.31E-03
 res:  5.42E-02  3.49E-02
 ene: -3.49E+00 -2.07E+00 -2.05E+00 -2.05E+00  2.32E-01  3.02E-01  3.55E-01  3.73E-01
 ene:  4.34E-01  6.40E-01
 res:  2.28E-05  6.80E-07  3.11E-05  3.72E-05  3.00E-05  1.43E-04  8.40E-05  1.06E-06
 res:  1.16E-04  3.41E-04
 ene: -3.50E+00 -2.07E+00 -2.06E+00 -2.05E+00  2.30E-01  2.95E-01  3.52E-01  3.73E-01
 ene:  4.32E-01  6.14E-01
 vtowfk : number of one-way 3D ffts skipped in vtowfk until now =3
     eigenvalues (hartree) for   10  bands
              after    3 non-SCF iterations with    4 CG line minimizations
 -3.4966E+00 -2.0663E+00 -2.0561E+00 -2.0505E+00  2.2997E-01  2.9516E-01
  3.5213E-01  3.7325E-01  4.3212E-01  6.1380E-01
 non-scf iterations; kpt #     2  , k= ( -0.25000  0.00000  0.00000  ), band residuals:
 res:  6.89E-02  2.54E-03  2.45E-03  3.26E-02  8.72E-02  1.30E-02  1.24E-03  1.28E-03
 res:  2.39E-03  2.22E-03
 ene: -3.50E+00 -2.05E+00 -2.05E+00 -2.01E+00  2.52E-01  3.17E-01  3.18E-01  3.67E-01
 ene:  4.05E-01  4.05E-01
 res:  2.85E-06  1.45E-07  1.43E-07  3.53E-06  1.91E-06  1.76E-08  1.57E-08  6.99E-08
 res:  1.39E-07  1.12E-07
 ene: -3.50E+00 -2.05E+00 -2.05E+00 -2.01E+00  2.51E-01  3.17E-01  3.18E-01  3.67E-01
 ene:  4.05E-01  4.05E-01
 vtowfk : number of one-way 3D ffts skipped in vtowfk until now =4
     eigenvalues (hartree) for   10  bands
              after    3 non-SCF iterations with    4 CG line minimizations
 -3.4986E+00 -2.0452E+00 -2.0452E+00 -2.0131E+00  2.5136E-01  3.1745E-01
  3.1822E-01  3.6697E-01  4.0511E-01  4.0540E-01
 Total charge density [el/Bohr^3]
      Maximum=    1.2455E+00  at reduced coord.    0.1333    0.8667    0.9333
      Minimum=    1.1392E-02  at reduced coord.    0.5333    0.4667    0.4667
   Integrated=    1.8000E+01
 ETOT  2  -130.33501862725    -1.091E+00 3.410E-04 1.555E+02
 scprqt: <Vxc>= -4.9865146E-01 hartree

 Pulay update with  1 previous iterations:
 mixing of old trial potential : alpha(m:m-4)=  0.698      0.302
 scfcv: previous iteration took 00 [s]

 ITER STEP NUMBER     3
 vtorho : nnsclo_now=1, note that nnsclo,dbl_nnsclo,istep=0 0 3
 non-scf iterations; kpt #     1  , k= ( -0.25000  0.50000  0.00000  ), band residuals:
 res:  2.00E-03  5.01E-05  1.85E-03  2.30E-04  1.22E-03  8.87E-04  4.44E-03  5.61E-05
 res:  1.58E-05  7.98E-03
 ene: -3.12E+00 -1.73E+00 -1.73E+00 -1.72E+00  3.80E-01  4.41E-01  5.03E-01  5.56E-01
 ene:  6.40E-01  7.41E-01
 vtowfk : number of one-way 3D ffts skipped in vtowfk until now =5
     eigenvalues (hartree) for   10  bands
              after    2 non-SCF iterations with    4 CG line minimizations
 -3.1163E+00 -1.7329E+00 -1.7258E+00 -1.7193E+00  3.8012E-01  4.4108E-01
  5.0349E-01  5.5597E-01  6.3979E-01  7.4093E-01
 non-scf iterations; kpt #     2  , k= ( -0.25000  0.00000  0.00000  ), band residuals:
 res:  2.97E-03  5.00E-05  5.01E-05  7.66E-04  4.76E-03  6.17E-05  6.17E-05  4.15E-03
 res:  1.19E-04  1.22E-04
 ene: -3.12E+00 -1.71E+00 -1.71E+00 -1.69E+00  3.33E-01  4.97E-01  4.97E-01  5.01E-01
 ene:  5.93E-01  5.94E-01
 vtowfk : number of one-way 3D ffts skipped in vtowfk until now =6
     eigenvalues (hartree) for   10  bands
              after    2 non-SCF iterations with    4 CG line minimizations
 -3.1184E+00 -1.7135E+00 -1.7132E+00 -1.6863E+00  3.3258E-01  4.9711E-01
  4.9736E-01  5.0088E-01  5.9319E-01  5.9378E-01
 Total charge density [el/Bohr^3]
      Maximum=    1.1884E+00  at reduced coord.    0.0000    0.1333    0.8667
      Minimum=    1.9726E-02  at reduced coord.    0.5333    0.4667    0.4667
   Integrated=    1.8000E+01
 ETOT  3  -130.56964960576    -2.346E-01 7.975E-03 8.112E-01
 scprqt: <Vxc>= -5.2423953E-01 hartree

 Pulay update with  2 previous iterations:
 mixing of old trial potential : alpha(m:m-4)=  0.871      0.810E-01  0.484E-01
 scfcv: previous iteration took 00 [s]

 ITER STEP NUMBER     4
 vtorho : nnsclo_now=1, note that nnsclo,dbl_nnsclo,istep=0 0 4
 non-scf iterations; kpt #     1  , k= ( -0.25000  0.50000  0.00000  ), band residuals:
 res:  4.30E-07  2.80E-08  8.33E-07  1.40E-07  2.68E-06  2.46E-06  4.74E-06  6.74E-08
 res:  6.78E-08  1.32E-05
 ene: -3.13E+00 -1.75E+00 -1.75E+00 -1.74E+00  3.57E-01  4.17E-01  4.80E-01  5.34E-01
 ene:  6.19E-01  7.18E-01
 vtowfk : number of one-way 3D ffts skipped in vtowfk until now =7
     eigenvalues (hartree) for   10  bands
              after    2 non-SCF iterations with    4 CG line minimizations
 -3.1350E+00 -1.7526E+00 -1.7455E+00 -1.7389E+00  3.5698E-01  4.1747E-01
  4.8046E-01  5.3432E-01  6.1894E-01  7.1783E-01
 non-scf iterations; kpt #     2  , k= ( -0.25000  0.00000  0.00000  ), band residuals:
 res:  7.43E-07  1.28E-08  1.16E-08  3.38E-07  2.82E-06  1.13E-07  1.44E-08  2.15E-06
 res:  1.95E-08  2.57E-08
 ene: -3.14E+00 -1.73E+00 -1.73E+00 -1.71E+00  3.07E-01  4.75E-01  4.76E-01  4.78E-01
 ene:  5.72E-01  5.72E-01
 vtowfk : number of one-way 3D ffts skipped in vtowfk until now =8
     eigenvalues (hartree) for   10  bands
              after    2 non-SCF iterations with    4 CG line minimizations
 -3.1371E+00 -1.7332E+00 -1.7330E+00 -1.7061E+00  3.0715E-01  4.7541E-01
  4.7583E-01  4.7796E-01  5.7188E-01  5.7246E-01
 Total charge density [el/Bohr^3]
      Maximum=    1.1873E+00  at reduced coord.    0.0000    0.1333    0.8667
      Minimum=    2.0151E-02  at reduced coord.    0.5333    0.4667    0.4667
   Integrated=    1.8000E+01
 ETOT  4  -130.57036052587    -7.109E-04 1.323E-05 2.682E-02
 scprqt: <Vxc>= -5.2504064E-01 hartree

 Pulay update with  3 previous iterations:
 mixing of old trial potential : alpha(m:m-4)=   1.20     -0.196     -0.166E-02 -0.247E-03
 scfcv: previous iteration took 00 [s]

 ITER STEP NUMBER     5
 vtorho : nnsclo_now=1, note that nnsclo,dbl_nnsclo,istep=0 0 5
 non-scf iterations; kpt #     1  , k= ( -0.25000  0.50000  0.00000  ), band residuals:
 res:  2.11E-08  1.12E-09  2.46E-08  5.02E-09  1.55E-07  1.76E-07  2.03E-07  8.29E-09
 res:  2.45E-09  4.67E-07
 ene: -3.13E+00 -1.75E+00 -1.75E+00 -1.74E+00  3.57E-01  4.17E-01  4.80E-01  5.34E-01
 ene:  6.19E-01  7.18E-01
 vtowfk : number of one-way 3D ffts skipped in vtowfk until now =9
     eigenvalues (hartree) for   10  bands
              after    2 non-SCF iterations with    4 CG line minimizations
 -3.1341E+00 -1.7521E+00 -1.7450E+00 -1.7385E+00  3.5683E-01  4.1709E-01
  4.8034E-01  5.3446E-01  6.1926E-01  7.1765E-01
 non-scf iterations; kpt #     2  , k= ( -0.25000  0.00000  0.00000  ), band residuals:
 res:  4.17E-08  4.27E-10  2.89E-10  1.23E-08  1.93E-07  8.18E-09  3.86E-10  1.50E-07
 res:  5.58E-10  5.60E-09
 ene: -3.14E+00 -1.73E+00 -1.73E+00 -1.71E+00  3.06E-01  4.76E-01  4.76E-01  4.78E-01
 ene:  5.72E-01  5.73E-01
 vtowfk : number of one-way 3D ffts skipped in vtowfk until now =10
     eigenvalues (hartree) for   10  bands
              after    2 non-SCF iterations with    4 CG line minimizations
 -3.1363E+00 -1.7327E+00 -1.7325E+00 -1.7056E+00  3.0644E-01  4.7555E-01
  4.7605E-01  4.7781E-01  5.7208E-01  5.7271E-01
 Total charge density [el/Bohr^3]
      Maximum=    1.1871E+00  at reduced coord.    0.0000    0.1333    0.8667
      Minimum=    2.0352E-02  at reduced coord.    0.5333    0.4667    0.4667
   Integrated=    1.8000E+01
 ETOT  5  -130.57037674431    -1.622E-05 4.674E-07 8.719E-05
 scprqt: <Vxc>= -5.2522896E-01 hartree

 Pulay update with  4 previous iterations:
 mixing of old trial potential : alpha(m:m-4)=   1.15     -0.169      0.252E-01 -0.679E-03 -0.228E-03
 scfcv: previous iteration took 00 [s]

 ITER STEP NUMBER     6
 vtorho : nnsclo_now=1, note that nnsclo,dbl_nnsclo,istep=0 0 6
 non-scf iterations; kpt #     1  , k= ( -0.25000  0.50000  0.00000  ), band residuals:
 res:  1.54E-10  9.01E-11  1.54E-10  5.64E-11  7.75E-10  1.07E-09  6.56E-10  4.49E-10
 res:  3.09E-10  4.65E-09
 ene: -3.13E+00 -1.75E+00 -1.75E+00 -1.74E+00  3.57E-01  4.17E-01  4.80E-01  5.34E-01
 ene:  6.19E-01  7.17E-01
 vtowfk : number of one-way 3D ffts skipped in vtowfk until now =11
     eigenvalues (hartree) for   10  bands
              after    2 non-SCF iterations with    4 CG line minimizations
 -3.1342E+00 -1.7522E+00 -1.7451E+00 -1.7386E+00  3.5669E-01  4.1691E-01
  4.8019E-01  5.3433E-01  6.1913E-01  7.1749E-01
 non-scf iterations; kpt #     2  , k= ( -0.25000  0.00000  0.00000  ), band residuals:
 res:  1.86E-10  2.61E-12  3.85E-11  8.55E-11  1.33E-09  6.25E-10  1.65E-11  1.08E-09
 res:  1.60E-11  3.78E-10
 ene: -3.14E+00 -1.73E+00 -1.73E+00 -1.71E+00  3.06E-01  4.75E-01  4.76E-01  4.78E-01
 ene:  5.72E-01  5.73E-01
 vtowfk : number of one-way 3D ffts skipped in vtowfk until now =12
     eigenvalues (hartree) for   10  bands
              after    2 non-SCF iterations with    4 CG line minimizations
 -3.1364E+00 -1.7328E+00 -1.7326E+00 -1.7057E+00  3.0627E-01  4.7541E-01
  4.7593E-01  4.7765E-01  5.7193E-01  5.7258E-01
 Total charge density [el/Bohr^3]
      Maximum=    1.1871E+00  at reduced coord.    0.0000    0.1333    0.8667
      Minimum=    2.0370E-02  at reduced coord.    0.5333    0.4667    0.4667
   Integrated=    1.8000E+01
 ETOT  6  -130.57037663548     1.088E-07 4.647E-09 8.264E-07
 scprqt: <Vxc>= -5.2523946E-01 hartree

 Pulay update with  5 previous iterations:
 mixing of old trial potential : alpha(m:m-4)=   1.01     -0.113E-01 -0.522E-02  0.185E-02  0.847E-05
 scfcv: previous iteration took 00 [s]

 ITER STEP NUMBER     7
 vtorho : nnsclo_now=1, note that nnsclo,dbl_nnsclo,istep=0 0 7
 non-scf iterations; kpt #     1  , k= ( -0.25000  0.50000  0.00000  ), band residuals:
 res:  4.46E-12  2.85E-12  2.34E-12  1.52E-12  3.55E-12  3.40E-12  8.84E-12  6.33E-12
 res:  7.19E-12  1.67E-10
 ene: -3.13E+00 -1.75E+00 -1.75E+00 -1.74E+00  3.57E-01  4.17E-01  4.80E-01  5.34E-01
 ene:  6.19E-01  7.17E-01
 vtowfk : number of one-way 3D ffts skipped in vtowfk until now =13
     eigenvalues (hartree) for   10  bands
              after    2 non-SCF iterations with    4 CG line minimizations
 -3.1343E+00 -1.7522E+00 -1.7452E+00 -1.7386E+00  3.5668E-01  4.1690E-01
  4.8018E-01  5.3431E-01  6.1912E-01  7.1748E-01
 non-scf iterations; kpt #     2  , k= ( -0.25000  0.00000  0.00000  ), band residuals:
 res:  4.34E-12  6.85E-15  1.29E-12  1.42E-12  6.94E-12  1.01E-11  1.34E-12  3.13E-12
 res:  1.31E-12  4.90E-12
 ene: -3.14E+00 -1.73E+00 -1.73E+00 -1.71E+00  3.06E-01  4.75E-01  4.76E-01  4.78E-01
 ene:  5.72E-01  5.73E-01
 vtowfk : number of one-way 3D ffts skipped in vtowfk until now =14
     eigenvalues (hartree) for   10  bands
              after    2 non-SCF iterations with    4 CG line minimizations
 -3.1364E+00 -1.7329E+00 -1.7326E+00 -1.7057E+00  3.0626E-01  4.7540E-01
  4.7591E-01  4.7764E-01  5.7191E-01  5.7257E-01
 Total charge density [el/Bohr^3]
      Maximum=    1.1871E+00  at reduced coord.    0.0000    0.1333    0.8667
      Minimum=    2.0370E-02  at reduced coord.    0.5333    0.4667    0.4667
   Integrated=    1.8000E+01
 ETOT  7  -130.57037658392     5.156E-08 1.674E-10 6.621E-09
 scprqt: <Vxc>= -5.2523873E-01 hartree

 At SCF step    7, etot is converged : 
  for the second time, diff in etot=  5.156E-08 < toldfe=  1.000E-06

 Cartesian components of stress tensor (hartree/bohr^3)
  sigma(1 1)=  7.33122892E-02  sigma(3 2)=  0.00000000E+00
  sigma(2 2)=  7.33122892E-02  sigma(3 1)=  0.00000000E+00
  sigma(3 3)=  7.33122892E-02  sigma(2 1)=  0.00000000E+00

 fftdatar_write: About to write data to: PdBase_o_DEN with iomode IO_MODE_FORTRAN
 IO operation completed. cpu_time:       0.0 [s], walltime:       0.0 [s]
================================================================================

 ----iterations are completed or convergence reached----

 Mean square residual over all n,k,spin=   1.2135E-11; max=  1.6741E-10
  -0.2500  0.5000  0.0000    1  1.67406E-10 kpt; spin; max resid(k); each band:
  4.46E-12 2.85E-12 2.34E-12 1.52E-12 3.55E-12 3.40E-12 8.84E-12 6.33E-12
  7.19E-12 1.67E-10
  -0.2500  0.0000  0.0000    1  1.01301E-11 kpt; spin; max resid(k); each band:
  4.34E-12 6.85E-15 1.29E-12 1.42E-12 6.94E-12 1.01E-11 1.34E-12 3.13E-12
  1.31E-12 4.90E-12

 outwf: write wavefunction to file PdBase_o_WFK, with iomode -1
 outwf with iomode: -1, cpu_time:     0.00[s], walltime:     0.01 [s]
 prteigrs : about to open file PdBase_o_EIG
 Fermi (or HOMO) energy (hartree) =   0.61912   Average Vxc (hartree)=  -0.52524
 Eigenvalues (hartree) for nkpt=   2  k points:
 kpt#   1, nband= 10, wtk=  0.75000, kpt= -0.2500  0.5000  0.0000 (reduced coord)
  -3.13426   -1.75221   -1.74515   -1.73861    0.35668    0.41690    0.48018    0.53431
   0.61912    0.71748
 kpt#   2, nband= 10, wtk=  0.25000, kpt= -0.2500  0.0000  0.0000 (reduced coord)
  -3.13641   -1.73286   -1.73263   -1.70575    0.30626    0.47540    0.47591    0.47764
   0.57191    0.57257
 Total charge density [el/Bohr^3]
      Maximum=    1.1871E+00  at reduced coord.    0.0000    0.1333    0.8667
 Next maximum=    1.1871E+00  at reduced coord.    0.1333    0.0000    0.8667
      Minimum=    2.0370E-02  at reduced coord.    0.5333    0.4667    0.4667
 Next minimum=    2.0370E-02  at reduced coord.    0.4667    0.5333    0.4667
   Integrated=    1.8000E+01

 Cartesian components of stress tensor (hartree/bohr^3)
  sigma(1 1)=  7.33122892E-02  sigma(3 2)=  0.00000000E+00
  sigma(2 2)=  7.33122892E-02  sigma(3 1)=  0.00000000E+00
  sigma(3 3)=  7.33122892E-02  sigma(2 1)=  0.00000000E+00

-Cartesian components of stress tensor (GPa)         [Pressure= -2.1569E+03 GPa]
- sigma(1 1)=  2.15692165E+03  sigma(3 2)=  0.00000000E+00
- sigma(2 2)=  2.15692165E+03  sigma(3 1)=  0.00000000E+00
- sigma(3 3)=  2.15692165E+03  sigma(2 1)=  0.00000000E+00

== END DATASET(S) ==============================================================
================================================================================
  
 -outvars: echo values of variables after computation  --------
            acell      7.3500000000E+00  7.3500000000E+00  7.3500000000E+00 Bohr
              amu      1.06420000E+02
           diemac      1.20000000E+01
             ecut      8.00000000E+00 Hartree
           etotal     -1.3057037658E+02
            fcart     -0.0000000000E+00 -0.0000000000E+00 -0.0000000000E+00
-          fftalg         112
           getwfk          -1
              ixc          11
              kpt     -2.50000000E-01  5.00000000E-01  0.00000000E+00
                      -2.50000000E-01  0.00000000E+00  0.00000000E+00
         kptrlatt        2   -2    2     -2    2    2     -2   -2    2
          kptrlen      1.47000000E+01
P           mkmem           2
            natom           1
            nband          10
            ngfft          15      15      15
             nkpt           2
            nstep          10
             nsym          48
           ntypat           1
              occ      2.000000  2.000000  2.000000  2.000000  2.000000  2.000000
                       2.000000  2.000000  2.000000  0.000000
            rprim      0.0000000000E+00  5.0000000000E-01  5.0000000000E-01
                       5.0000000000E-01  0.0000000000E+00  5.0000000000E-01
                       5.0000000000E-01  5.0000000000E-01  0.0000000000E+00
           shiftk      5.00000000E-01  5.00000000E-01  5.00000000E-01
          spgroup         225
           strten      7.3312289233E-02  7.3312289233E-02  7.3312289233E-02
                       0.0000000000E+00  0.0000000000E+00  0.0000000000E+00
           symrel      1  0  0   0  1  0   0  0  1      -1  0  0   0 -1  0   0  0 -1
                       0 -1  1   0 -1  0   1 -1  0       0  1 -1   0  1  0  -1  1  0
                      -1  0  0  -1  0  1  -1  1  0       1  0  0   1  0 -1   1 -1  0
                       0  1 -1   1  0 -1   0  0 -1       0 -1  1  -1  0  1   0  0  1
                      -1  0  0  -1  1  0  -1  0  1       1  0  0   1 -1  0   1  0 -1
                       0 -1  1   1 -1  0   0 -1  0       0  1 -1  -1  1  0   0  1  0
                       1  0  0   0  0  1   0  1  0      -1  0  0   0  0 -1   0 -1  0
                       0  1 -1   0  0 -1   1  0 -1       0 -1  1   0  0  1  -1  0  1
                      -1  0  1  -1  1  0  -1  0  0       1  0 -1   1 -1  0   1  0  0
                       0 -1  0   1 -1  0   0 -1  1       0  1  0  -1  1  0   0  1 -1
                       1  0 -1   0  0 -1   0  1 -1      -1  0  1   0  0  1   0 -1  1
                       0  1  0   0  0  1   1  0  0       0 -1  0   0  0 -1  -1  0  0
                       1  0 -1   0  1 -1   0  0 -1      -1  0  1   0 -1  1   0  0  1
                       0 -1  0   0 -1  1   1 -1  0       0  1  0   0  1 -1  -1  1  0
                      -1  0  1  -1  0  0  -1  1  0       1  0 -1   1  0  0   1 -1  0
                       0  1  0   1  0  0   0  0  1       0 -1  0  -1  0  0   0  0 -1
                       0  0 -1   0  1 -1   1  0 -1       0  0  1   0 -1  1  -1  0  1
                       1 -1  0   0 -1  1   0 -1  0      -1  1  0   0  1 -1   0  1  0
                       0  0  1   1  0  0   0  1  0       0  0 -1  -1  0  0   0 -1  0
                      -1  1  0  -1  0  0  -1  0  1       1 -1  0   1  0  0   1  0 -1
                       0  0  1   0  1  0   1  0  0       0  0 -1   0 -1  0  -1  0  0
                       1 -1  0   0 -1  0   0 -1  1      -1  1  0   0  1  0   0  1 -1
                       0  0 -1   1  0 -1   0  1 -1       0  0  1  -1  0  1   0 -1  1
                      -1  1  0  -1  0  1  -1  0  0       1 -1  0   1  0 -1   1  0  0
           toldfe      1.00000000E-06 Hartree
            typat      1
              wtk        0.75000    0.25000
            znucl       46.00000

================================================================================
  

================================================================================

 Suggested references for the acknowledgment of ABINIT usage.

 The users of ABINIT have little formal obligations with respect to the ABINIT group
 (those specified in the GNU General Public License, http://www.gnu.org/copyleft/gpl.txt).
 However, it is common practice in the scientific literature,
 to acknowledge the efforts of people that have made the research possible.
 In this spirit, please find below suggested citations of work written by ABINIT developers,
 corresponding to implementations inside of ABINIT that you have used in the present run.
 Note also that it will be of great value to readers of publications presenting these results,
 to read papers enabling them to understand the theoretical formalism and details
 of the ABINIT implementation.
 For information on why they are suggested, see also https://www.abinit.org/about/?text=acknowledgments.
-
- [1] Recent developments in the ABINIT software package.
- Computer Phys. Comm. 205, 106 (2016).
- X.Gonze, F.Jollet, F.Abreu Araujo, D.Adams, B.Amadon, T.Applencourt,
- C.Audouze, J.-M.Beuken, J.Bieder, A.Bokhanchuk, E.Bousquet, F.Bruneval
- D.Caliste, M.Cote, F.Dahm, F.Da Pieve, M.Delaveau, M.Di Gennaro,
- B.Dorado, C.Espejo, G.Geneste, L.Genovese, A.Gerossier, M.Giantomassi,
- Y.Gillet, D.R.Hamann, L.He, G.Jomard, J.Laflamme Janssen, S.Le Roux,
- A.Levitt, A.Lherbier, F.Liu, I.Lukacevic, A.Martin, C.Martins,
- M.J.T.Oliveira, S.Ponce, Y.Pouillon, T.Rangel, G.-M.Rignanese,
- A.H.Romero, B.Rousseau, O.Rubel, A.A.Shukri, M.Stankovski, M.Torrent,
- M.J.Van Setten, B.Van Troeye, M.J.Verstraete, D.Waroquier, J.Wiktor,
- B.Xue, A.Zhou, J.W.Zwanziger.
- Comment : the fourth generic paper describing the ABINIT project.
- Note that a version of this paper, that is not formatted for Computer Phys. Comm. 
- is available at https://www.abinit.org/about/ABINIT16.pdf .
- The licence allows the authors to put it on the Web.
-
- [2] Optimized norm-conserving Vanderbilt pseudopotentials.
- D.R. Hamann, Phys. Rev. B 88, 085117 (2013).
- Comment: Some pseudopotential generated using the ONCVPSP code were used.
-
- [3] ABINIT : First-principles approach of materials and nanosystem properties.
- Computer Phys. Comm. 180, 2582-2615 (2009).
- X. Gonze, B. Amadon, P.-M. Anglade, J.-M. Beuken, F. Bottin, P. Boulanger, F. Bruneval,
- D. Caliste, R. Caracas, M. Cote, T. Deutsch, L. Genovese, Ph. Ghosez, M. Giantomassi
- S. Goedecker, D.R. Hamann, P. Hermet, F. Jollet, G. Jomard, S. Leroux, M. Mancini, S. Mazevet,
- M.J.T. Oliveira, G. Onida, Y. Pouillon, T. Rangel, G.-M. Rignanese, D. Sangalli, R. Shaltaf,
- M. Torrent, M.J. Verstraete, G. Zerah, J.W. Zwanziger
- Comment : the third generic paper describing the ABINIT project.
- Note that a version of this paper, that is not formatted for Computer Phys. Comm. 
- is available at https://www.abinit.org/about/ABINIT_CPC_v10.pdf .
- The licence allows the authors to put it on the Web.
-
- [4] A brief introduction to the ABINIT software package.
- Z. Kristallogr. 220, 558-562 (2005).
- X. Gonze, G.-M. Rignanese, M. Verstraete, J.-M. Beuken, Y. Pouillon, R. Caracas, F. Jollet,
- M. Torrent, G. Zerah, M. Mikami, Ph. Ghosez, M. Veithen, J.-Y. Raty, V. Olevano, F. Bruneval,
- L. Reining, R. Godby, G. Onida, D.R. Hamann, and D.C. Allan.
- Comment : the second generic paper describing the ABINIT project. Note that this paper
- should be cited especially if you are using the GW part of ABINIT, as several authors
- of this part are not in the list of authors of the first or third paper.
- The .pdf of the latter paper is available at https://www.abinit.org/about/zfk_0505-06_558-562.pdf.
- Note that it should not redistributed (Copyright by Oldenburg Wissenshaftverlag,
- the licence allows the authors to put it on the Web).
-
- And optionally:
-
- [5] First-principles computation of material properties : the ABINIT software project. 
- X. Gonze, J.-M. Beuken, R. Caracas, F. Detraux, M. Fuchs, G.-M. Rignanese, L. Sindic,
- M. Verstraete, G. Zerah, F. Jollet, M. Torrent, A. Roy, M. Mikami, Ph. Ghosez, J.-Y. Raty, D.C. Allan.
- Computational Materials Science 25, 478-492 (2002). http://dx.doi.org/10.1016/S0927-0256(02)00325-7
- Comment : the original paper describing the ABINIT project.

 Calculation completed.
.Delivered   0 WARNINGs and   2 COMMENTs to log file.

--- !FinalSummary
program: abinit
version: 8.6.3
start_datetime: Sat Apr 21 09:16:55 2018
end_datetime: Sat Apr 21 09:16:56 2018
overall_cpu_time:           0.6
overall_wall_time:           0.8
exit_requested_by_user: no 
timelimit: 0
pseudos: 
    Pd  : 4144628137bc01fa80f914e5e2c5b797
usepaw: 0
mpi_procs: 1
omp_threads: 1
num_warnings: 0
num_comments: 2
...
