
.Version 8.6.3 of ABINIT 
.(sequential version, prepared for a x86_64_linux_gnu5.4 computer) 

.Copyright (C) 1998-2017 ABINIT group . 
 ABINIT comes with ABSOLUTELY NO WARRANTY.
 It is free software, and you are welcome to redistribute it
 under certain conditions (GNU General Public License,
 see ~abinit/COPYING or http://www.gnu.org/copyleft/gpl.txt).

 ABINIT is a project of the Universite Catholique de Louvain,
 Corning Inc. and other collaborators, see ~abinit/doc/developers/contributors.txt .
 Please read ~abinit/doc/users/acknowledgments.html for suggested
 acknowledgments of the ABINIT effort.
 For more information, see https://www.abinit.org .

.Starting date : Sun 22 Apr 2018.
- ( at 07h41 )
  
- input  file    -> DOSwithoutGeom.in
- output file    -> DOSwithoutGeom.out
- root for input  files -> DOSwithoutGeom_i
- root for output files -> DOSwithoutGeom_o


 Symmetries : space group P1 (#  1); Bravais aP (primitive triclinic)
================================================================================
 Values of the parameters that define the memory need of the present run
     intxc =       0    ionmov =       0      iscf =       7    lmnmax =       6
     lnmax =       6     mgfft =     360  mpssoang =       3    mqgrid =   17435
     natom =      30  nloc_mem =       1    nspden =       1   nspinor =       1
    nsppol =       1      nsym =       1    n1xccc =    2501    ntypat =       3
    occopt =       1   xclevel =       2
-    mband =         184        mffmem =           1         mkmem =           2
       mpw =       83728          nfft =     1474560          nkpt =           2
================================================================================
P This job should need less than                     919.124 Mbytes of memory.
  Rough estimation (10% accuracy) of disk space for files :
_ WF disk file :    470.154 Mbytes ; DEN or POT disk file :     11.252 Mbytes.
================================================================================

--------------------------------------------------------------------------------
------------- Echo of variables that govern the present computation ------------
--------------------------------------------------------------------------------
-
- outvars: echo of selected default values                                      
-   iomode0 =  0 , fftalg0 =112 , wfoptalg0 =  0
-
- outvars: echo of global parameters not present in the input file              
-  max_nthreads =    0
-
 -outvars: echo values of preprocessed input variables --------
            acell      8.6808000000E+00  8.6808000000E+00  5.0000000000E+01 Bohr
              amu      4.78800000E+01  1.59994000E+01  1.06420000E+02
           diemac      1.20000000E+01
             ecut      6.00000000E+01 Hartree
-          fftalg         112
              ixc          11
              kpt      1.25000000E-01  5.00000000E-01  5.00000000E-01
                       3.75000000E-01  5.00000000E-01  5.00000000E-01
           kptopt           2
         kptrlatt        4    0    0      0    1    0      0    0    1
          kptrlen      8.68080000E+00
P           mkmem           2
            natom          30
            nband         184
            ngfft          64      64     360
             nkpt           2
            nstep          10
             nsym           1
           ntypat           3
              occ      2.000000  2.000000  2.000000  2.000000  2.000000  2.000000
                       2.000000  2.000000  2.000000  2.000000  2.000000  2.000000
                       2.000000  2.000000  2.000000  2.000000  2.000000  2.000000
                       2.000000  2.000000  2.000000  2.000000  2.000000  2.000000
                       2.000000  2.000000  2.000000  2.000000  2.000000  2.000000
                       2.000000  2.000000  2.000000  2.000000  2.000000  2.000000
                       2.000000  2.000000  2.000000  2.000000  2.000000  2.000000
                       2.000000  2.000000  2.000000  2.000000  2.000000  2.000000
                       2.000000  2.000000  2.000000  2.000000  2.000000  2.000000
                       2.000000  2.000000  2.000000  2.000000  2.000000  2.000000
                       2.000000  2.000000  2.000000  2.000000  2.000000  2.000000
                       2.000000  2.000000  2.000000  2.000000  2.000000  2.000000
                       2.000000  2.000000  2.000000  2.000000  2.000000  2.000000
                       2.000000  2.000000  2.000000  2.000000  2.000000  2.000000
                       2.000000  2.000000  2.000000  2.000000  2.000000  2.000000
                       2.000000  2.000000  2.000000  2.000000  2.000000  2.000000
                       2.000000  2.000000  2.000000  2.000000  2.000000  2.000000
                       2.000000  2.000000  2.000000  2.000000  2.000000  2.000000
                       2.000000  2.000000  2.000000  2.000000  2.000000  2.000000
                       2.000000  2.000000  2.000000  2.000000  2.000000  2.000000
                       2.000000  2.000000  2.000000  2.000000  2.000000  2.000000
                       2.000000  2.000000  2.000000  2.000000  2.000000  2.000000
                       2.000000  2.000000  2.000000  2.000000  2.000000  2.000000
                       2.000000  2.000000  2.000000  2.000000  2.000000  2.000000
                       2.000000  2.000000  2.000000  2.000000  2.000000  2.000000
                       2.000000  2.000000  2.000000  2.000000  2.000000  2.000000
                       2.000000  2.000000  2.000000  2.000000  2.000000  2.000000
                       2.000000  2.000000  2.000000  2.000000  2.000000  2.000000
                       2.000000  2.000000  2.000000  2.000000  2.000000  2.000000
                       2.000000  2.000000  2.000000  2.000000  2.000000  2.000000
                       0.000000  0.000000  0.000000  0.000000
           prtdos           2
           shiftk      5.00000000E-01  5.00000000E-01  5.00000000E-01
          spgroup           1
           toldfe      1.00000000E-02 Hartree
            typat      1  1  1  1  1  1  2  2  2  2  2  2  2  2  2  2  2  2  3  3
                       3  3  3  3  3  3  3  3  3  3
              wtk        0.50000    0.50000
           xangst      0.0000000000E+00  0.0000000000E+00  0.0000000000E+00
                       0.0000000000E+00  0.0000000000E+00  4.5936815123E+00
                       0.0000000000E+00  0.0000000000E+00  9.1873630247E+00
                       2.2968407562E+00  1.4793678043E+00  2.2968407562E+00
                       2.2968407562E+00  1.4793678043E+00  6.8905222685E+00
                       2.2968407562E+00  1.4793678043E+00  1.1484203781E+01
                       3.9876836484E+01  0.0000000000E+00  1.4240158683E+00
                       3.9876836484E+01  0.0000000000E+00  6.0176973806E+00
                       3.9876836484E+01  0.0000000000E+00  1.0611378893E+01
                       3.1696656440E+00  0.0000000000E+00  3.1696656440E+00
                       3.1696656440E+00  0.0000000000E+00  7.7633471563E+00
                       3.1696656440E+00  0.0000000000E+00  1.2357028669E+01
                       8.7282488785E-01  1.4793678043E+00  3.7208566245E+00
                       8.7282488785E-01  1.4793678043E+00  8.3145381368E+00
                       8.7282488785E-01  1.4793678043E+00  1.2908219649E+01
                       3.7208566245E+00  1.4793678043E+00  8.7282488785E-01
                       3.7208566245E+00  1.4793678043E+00  5.4665064002E+00
                       3.7208566245E+00  1.4793678043E+00  1.0060187913E+01
                       8.7282488785E-01  0.0000000000E+00  1.6691519184E+01
                       8.7282488785E-01  0.0000000000E+00  2.0582241693E+01
                       8.7282488785E-01  0.0000000000E+00  2.4472964201E+01
                       1.9453612542E+00  1.3755961537E+00  1.8067115338E+01
                       1.9453612542E+00  1.3755961537E+00  2.1957837846E+01
                       1.9453612542E+00  1.3755961537E+00  2.5848560355E+01
                       1.9453612542E+00 -1.3755961537E+00  1.8067115338E+01
                       1.9453612542E+00 -1.3755961537E+00  2.1957837846E+01
                       1.9453612542E+00 -1.3755961537E+00  2.5848560355E+01
                       0.0000000000E+00  0.0000000000E+00  1.9442658574E+01
                       0.0000000000E+00  0.0000000000E+00  2.3333381082E+01
                       0.0000000000E+00  0.0000000000E+00  2.7224103591E+01
            xcart      0.0000000000E+00  0.0000000000E+00  0.0000000000E+00
                       0.0000000000E+00  0.0000000000E+00  8.6808000000E+00
                       0.0000000000E+00  0.0000000000E+00  1.7361600000E+01
                       4.3404000000E+00  2.7956000000E+00  4.3404000000E+00
                       4.3404000000E+00  2.7956000000E+00  1.3021200000E+01
                       4.3404000000E+00  2.7956000000E+00  2.1702000000E+01
                       7.5356300000E+01  0.0000000000E+00  2.6910000000E+00
                       7.5356300000E+01  0.0000000000E+00  1.1371800000E+01
                       7.5356300000E+01  0.0000000000E+00  2.0052600000E+01
                       5.9898000000E+00  0.0000000000E+00  5.9898000000E+00
                       5.9898000000E+00  0.0000000000E+00  1.4670600000E+01
                       5.9898000000E+00  0.0000000000E+00  2.3351400000E+01
                       1.6494000000E+00  2.7956000000E+00  7.0314000000E+00
                       1.6494000000E+00  2.7956000000E+00  1.5712200000E+01
                       1.6494000000E+00  2.7956000000E+00  2.4393000000E+01
                       7.0314000000E+00  2.7956000000E+00  1.6494000000E+00
                       7.0314000000E+00  2.7956000000E+00  1.0330200000E+01
                       7.0314000000E+00  2.7956000000E+00  1.9011000000E+01
                       1.6494000000E+00  0.0000000000E+00  3.1542400000E+01
                       1.6494000000E+00  0.0000000000E+00  3.8894800000E+01
                       1.6494000000E+00  0.0000000000E+00  4.6247200000E+01
                       3.6762000000E+00  2.5995000000E+00  3.4141900000E+01
                       3.6762000000E+00  2.5995000000E+00  4.1494300000E+01
                       3.6762000000E+00  2.5995000000E+00  4.8846700000E+01
                       3.6762000000E+00 -2.5995000000E+00  3.4141900000E+01
                       3.6762000000E+00 -2.5995000000E+00  4.1494300000E+01
                       3.6762000000E+00 -2.5995000000E+00  4.8846700000E+01
                       0.0000000000E+00  0.0000000000E+00  3.6741300000E+01
                       0.0000000000E+00  0.0000000000E+00  4.4093700000E+01
                       0.0000000000E+00  0.0000000000E+00  5.1446100000E+01
             xred      0.0000000000E+00  0.0000000000E+00  0.0000000000E+00
                       0.0000000000E+00  0.0000000000E+00  1.7361600000E-01
                       0.0000000000E+00  0.0000000000E+00  3.4723200000E-01
                       5.0000000000E-01  3.2204405124E-01  8.6808000000E-02
                       5.0000000000E-01  3.2204405124E-01  2.6042400000E-01
                       5.0000000000E-01  3.2204405124E-01  4.3404000000E-01
                       8.6808013086E+00  0.0000000000E+00  5.3820000000E-02
                       8.6808013086E+00  0.0000000000E+00  2.2743600000E-01
                       8.6808013086E+00  0.0000000000E+00  4.0105200000E-01
                       6.9000552944E-01  0.0000000000E+00  1.1979600000E-01
                       6.9000552944E-01  0.0000000000E+00  2.9341200000E-01
                       6.9000552944E-01  0.0000000000E+00  4.6702800000E-01
                       1.9000552944E-01  3.2204405124E-01  1.4062800000E-01
                       1.9000552944E-01  3.2204405124E-01  3.1424400000E-01
                       1.9000552944E-01  3.2204405124E-01  4.8786000000E-01
                       8.0999447056E-01  3.2204405124E-01  3.2988000000E-02
                       8.0999447056E-01  3.2204405124E-01  2.0660400000E-01
                       8.0999447056E-01  3.2204405124E-01  3.8022000000E-01
                       1.9000552944E-01  0.0000000000E+00  6.3084800000E-01
                       1.9000552944E-01  0.0000000000E+00  7.7789600000E-01
                       1.9000552944E-01  0.0000000000E+00  9.2494400000E-01
                       4.2348631463E-01  2.9945396738E-01  6.8283800000E-01
                       4.2348631463E-01  2.9945396738E-01  8.2988600000E-01
                       4.2348631463E-01  2.9945396738E-01  9.7693400000E-01
                       4.2348631463E-01 -2.9945396738E-01  6.8283800000E-01
                       4.2348631463E-01 -2.9945396738E-01  8.2988600000E-01
                       4.2348631463E-01 -2.9945396738E-01  9.7693400000E-01
                       0.0000000000E+00  0.0000000000E+00  7.3482600000E-01
                       0.0000000000E+00  0.0000000000E+00  8.8187400000E-01
                       0.0000000000E+00  0.0000000000E+00  1.0289220000E+00
            znucl       22.00000    8.00000   46.00000

================================================================================

 chkinp: Checking input parameters for consistency.

================================================================================
== DATASET  1 ==================================================================
-   nproc =    1

 Exchange-correlation functional for the present dataset will be:
  GGA: Perdew-Burke-Ernzerhof functional - ixc=11
 Citation for XC functional:
  J.P.Perdew, K.Burke, M.Ernzerhof, PRL 77, 3865 (1996)

 Real(R)+Recip(G) space primitive vectors, cartesian coordinates (Bohr,Bohr^-1):
 R(1)=  8.6808000  0.0000000  0.0000000  G(1)=  0.1151968  0.0000000  0.0000000
 R(2)=  0.0000000  8.6808000  0.0000000  G(2)=  0.0000000  0.1151968  0.0000000
 R(3)=  0.0000000  0.0000000 50.0000000  G(3)=  0.0000000  0.0000000  0.0200000
 Unit cell volume ucvol=  3.7678144E+03 bohr^3
 Angles (23,13,12)=  9.00000000E+01  9.00000000E+01  9.00000000E+01 degrees

 getcut: wavevector=  0.0000  0.0000  0.0000  ngfft=  64  64 360
         ecut(hartree)=     60.000   => boxcut(ratio)=   2.06487

--- Pseudopotential description ------------------------------------------------
- pspini: atom type   1  psp file is ../../../Psps_for_tests/Ti.psp8
- pspatm: opening atomic psp file    ../../../Psps_for_tests/Ti.psp8
- Ti    ONCVPSP-3.2.3.1  r_core=   1.35825   1.31050   1.66360
- 22.00000  12.00000    170504                znucl, zion, pspdat
    8   11    2    4       600   0.00000      pspcod,pspxc,lmax,lloc,mmax,r2well
    5.99000000000000    2.50000000000000    0.00000000000000   rchrg,fchrg,qchrg
     nproj     2     2     2
     extension_switch     1
  pspatm : epsatm=   14.68144390
         --- l  ekb(1:nproj) -->
             0   11.362348    1.263639
             1    1.975402   -0.084666
             2   -5.186090   -1.477451
 pspatm: atomic psp has been read  and splines computed

- pspini: atom type   2  psp file is ../../../Psps_for_tests/O.psp8
- pspatm: opening atomic psp file    ../../../Psps_for_tests/O.psp8
- O     ONCVPSP-3.2.3.1  r_core=   1.35509   1.45563   1.26150
-  8.00000   6.00000    170504                znucl, zion, pspdat
    8   11    2    4       600   0.00000      pspcod,pspxc,lmax,lloc,mmax,r2well
    5.99000000000000    4.00000000000000    0.00000000000000   rchrg,fchrg,qchrg
     nproj     2     2     1
     extension_switch     1
  pspatm : epsatm=    6.19546011
         --- l  ekb(1:nproj) -->
             0    6.056735    0.824024
             1   -4.717130   -1.149271
             2   -1.331955
 pspatm: atomic psp has been read  and splines computed

- pspini: atom type   3  psp file is ../../../Psps_for_tests/Pd.psp8
- pspatm: opening atomic psp file    ../../../Psps_for_tests/Pd.psp8
- Pd    ONCVPSP-3.2.3.1  r_core=   1.41052   1.46191   1.55175
- 46.00000  18.00000    170510                znucl, zion, pspdat
    8   11    2    4       600   0.00000      pspcod,pspxc,lmax,lloc,mmax,r2well
    5.99000000000000    7.00000000000000    0.00000000000000   rchrg,fchrg,qchrg
     nproj     2     2     2
     extension_switch     1
  pspatm : epsatm=   26.09224486
         --- l  ekb(1:nproj) -->
             0    7.845850   -2.282160
             1    3.261104   -0.686948
             2   -1.134855   -0.401224
 pspatm: atomic psp has been read  and splines computed

   1.71194804E+05                                ecore*ucvol(ha*bohr**3)
--------------------------------------------------------------------------------

_setup2: Arith. and geom. avg. npw (full set) are   83658.000   83657.971

================================================================================

     iter   Etot(hartree)      deltaE(h)  residm     vres2
 ETOT  1  -1797.6904015613    -1.798E+03 1.824E-01 2.069E+08
 ETOT  2   4938.3203195402     6.736E+03 7.563E-01 4.333E+09
 ETOT  3  -867.28172418573    -5.806E+03 1.438E+00 7.618E+08
 ETOT  4  -1729.6811463028    -8.624E+02 1.807E-01 2.513E+08
 ETOT  5  -2018.9045937860    -2.892E+02 1.269E-01 8.251E+07
 ETOT  6  -2103.4924104505    -8.459E+01 8.202E-02 3.334E+07
 ETOT  7  -2134.4876552085    -3.100E+01 4.721E-02 1.510E+07
 ETOT  8  -2142.3382512402    -7.851E+00 1.194E-02 1.059E+07
 ETOT  9  -2126.1726278415     1.617E+01 2.415E-02 1.967E+07
 ETOT 10  -2112.2472023600     1.393E+01 3.881E-02 2.388E+07

 Cartesian components of stress tensor (hartree/bohr^3)
  sigma(1 1)= -1.43614511E-02  sigma(3 2)=  1.98802970E-04
  sigma(2 2)= -1.54261920E-02  sigma(3 1)= -1.28409442E-03
  sigma(3 3)= -1.27039757E-02  sigma(2 1)= -2.76991531E-04


 scprqt:  WARNING -
  nstep=   10 was not enough SCF cycles to converge;
  maximum energy difference=  1.393E+01 exceeds toldfe=  1.000E-02

 Integrated electronic density in atomic spheres:
 ------------------------------------------------
 Atom  Sphere_radius  Integrated_density
    1        2.00000         21.13264136
    2        2.00000         10.45607547
    3        2.00000          9.97102551
    4        2.00000         10.61817371
    5        2.00000         11.34202465
    6        2.00000         11.09847771
    7        2.00000          7.76780850
    8        2.00000          5.23364544
    9        2.00000          5.69931632
   10        2.00000          6.24762037
   11        2.00000          4.57098058
   12        2.00000          4.29846669
   13        2.00000          5.09950025
   14        2.00000          4.65402289
   15        2.00000          2.86079639
   16        2.00000          7.33670154
   17        2.00000          5.11881310
   18        2.00000          5.06402302
   19        2.00000         13.43536467
   20        2.00000         18.26835638
   21        2.00000         18.22976830
   22        2.00000         14.62194127
   23        2.00000         15.92604761
   24        2.00000         16.01714939
   25        2.00000         14.63342594
   26        2.00000         16.05363134
   27        2.00000         15.97710878
   28        2.00000         18.34233241
   29        2.00000         17.95501492
   30        2.00000         22.25233153
================================================================================

 ----iterations are completed or convergence reached----

 Mean square residual over all n,k,spin=   3.0246E-03; max=  3.8812E-02
 reduced coordinates (array xred) for   30 atoms
       0.000000000000      0.000000000000      0.000000000000
       0.000000000000      0.000000000000      0.173616000000
       0.000000000000      0.000000000000      0.347232000000
       0.500000000000      0.322044051240      0.086808000000
       0.500000000000      0.322044051240      0.260424000000
       0.500000000000      0.322044051240      0.434040000000
       8.680801308635      0.000000000000      0.053820000000
       8.680801308635      0.000000000000      0.227436000000
       8.680801308635      0.000000000000      0.401052000000
       0.690005529444      0.000000000000      0.119796000000
       0.690005529444      0.000000000000      0.293412000000
       0.690005529444      0.000000000000      0.467028000000
       0.190005529444      0.322044051240      0.140628000000
       0.190005529444      0.322044051240      0.314244000000
       0.190005529444      0.322044051240      0.487860000000
       0.809994470556      0.322044051240      0.032988000000
       0.809994470556      0.322044051240      0.206604000000
       0.809994470556      0.322044051240      0.380220000000
       0.190005529444      0.000000000000      0.630848000000
       0.190005529444      0.000000000000      0.777896000000
       0.190005529444      0.000000000000      0.924944000000
       0.423486314625      0.299453967376      0.682838000000
       0.423486314625      0.299453967376      0.829886000000
       0.423486314625      0.299453967376      0.976934000000
       0.423486314625     -0.299453967376      0.682838000000
       0.423486314625     -0.299453967376      0.829886000000
       0.423486314625     -0.299453967376      0.976934000000
       0.000000000000      0.000000000000      0.734826000000
       0.000000000000      0.000000000000      0.881874000000
       0.000000000000      0.000000000000      1.028922000000
 rms dE/dt=  2.9952E+02; max dE/dt=  1.9571E+03; dE/dt below (all hartree)
    1      -2.511405035096      1.774063505207   1957.143745378336
    2       1.835277003015     -3.582105866303   -186.428832845299
    3       1.799192245172     -3.311545613009    -90.106337040724
    4       3.396548454511     -0.723366723409   -172.339788499616
    5      -3.125433961010      4.852324825766   -186.317059712772
    6      -2.230463928880      3.299626314210    -72.253289801391
    7       3.453863934912      0.734199306568     43.449937555714
    8       1.546107880327      0.071856684403    106.760885481906
    9       1.721391500208      0.935906392773     48.844071096460
   10      -0.556753184299     -0.499665110550     76.637712299115
   11       1.456951763423     -1.539232333905     81.596397593338
   12       2.013167189434     -1.569998230162     15.611169674854
   13      -1.294420930733      1.790091494518    102.200097735393
   14      -2.762221573753      0.461464838968     95.237525506146
   15      -3.153386841256     -0.707680352148     16.855193341436
   16       1.411739007276     -2.172186983227     30.724385034049
   17       0.426707803764     -0.573637468899     96.333656428114
   18       0.938156357711     -0.576043718758     51.202911192057
   19      -2.207330632883     -0.065229118870    -68.505299150328
   20      -6.843543135592      0.146905909593     70.595652239266
   21      -8.408335161337     -0.096314155382    -23.330540092760
   22       1.175674615366      1.674651126896    -38.837700585216
   23      -3.289704265853      3.650198113684     -6.875737644480
   24      -2.087532245862      4.821860161823     -7.301645600126
   25       0.628827365296     -1.558346464873    -39.352808743194
   26      -3.078075119594     -3.461107061125     -3.337826283476
   27      -2.175503042782     -4.944176686231     -3.098627541204
   28      12.979315824813     -0.340641991537     50.904739780894
   29      11.416502204670      0.217462831159     56.101954025110
   30      -0.904180637886      0.717381191329  -2012.459205147443

 cartesian coordinates (angstrom) at end:
    1      0.00000000000000     0.00000000000000     0.00000000000000
    2      0.00000000000000     0.00000000000000     4.59368151232807
    3      0.00000000000000     0.00000000000000     9.18736302465614
    4      2.29684075616404     1.47936780433420     2.29684075616404
    5      2.29684075616404     1.47936780433420     6.89052226849211
    6      2.29684075616404     1.47936780433420    11.48420378082018
    7     39.87683648367062     0.00000000000000     1.42401586831569
    8     39.87683648367062     0.00000000000000     6.01769738064376
    9     39.87683648367062     0.00000000000000    10.61137889297183
   10      3.16966564401238     0.00000000000000     3.16966564401238
   11      3.16966564401238     0.00000000000000     7.76334715634045
   12      3.16966564401238     0.00000000000000    12.35702866866853
   13      0.87282488784835     1.47936780433420     3.72085662447973
   14      0.87282488784835     1.47936780433420     8.31453813680780
   15      0.87282488784835     1.47936780433420    12.90821964913587
   16      3.72085662447973     1.47936780433420     0.87282488784835
   17      3.72085662447973     1.47936780433420     5.46650640017642
   18      3.72085662447973     1.47936780433420    10.06018791250449
   19      0.87282488784835     0.00000000000000    16.69151918422922
   20      0.87282488784835     0.00000000000000    20.58224169266633
   21      0.87282488784835     0.00000000000000    24.47296420110344
   22      1.94536125421856     1.37559615372970    18.06711533795892
   23      1.94536125421856     1.37559615372970    21.95783784639604
   24      1.94536125421856     1.37559615372970    25.84856035483315
   25      1.94536125421856    -1.37559615372970    18.06711533795892
   26      1.94536125421856    -1.37559615372970    21.95783784639604
   27      1.94536125421856    -1.37559615372970    25.84856035483315
   28      0.00000000000000     0.00000000000000    19.44265857396777
   29      0.00000000000000     0.00000000000000    23.33338108240488
   30      0.00000000000000     0.00000000000000    27.22410359084200

 cartesian forces (hartree/bohr) at end:
    1      0.29533869576519    -0.20656771394994   -39.14977135045062
    2     -0.20538497464655     0.41044562255243     3.72168021402209
    3     -0.20122812759994     0.37927795905440     1.79523029793059
    4     -0.38523838118699     0.08112814687118     3.43989932710843
    5      0.36607283615708    -0.56117343238130     3.71944475137154
    6      0.26297519168544    -0.38230760071188     1.43816935314392
    7     -0.39184093860122    -0.08677873152443    -0.87589519399818
    8     -0.17207362976039    -0.01047901005127    -2.14211415252202
    9     -0.19226573416108    -0.11001473352954    -0.98377786481309
   10      0.07016914332804     0.05535844674461    -1.53965068886619
   11     -0.16180313431026     0.17511321858072    -1.63882439475066
   12     -0.22587734705691     0.17865735002675    -0.31911983638097
   13      0.15514607476683    -0.20841408632471    -2.05089839759175
   14      0.32423194738458    -0.05536060559133    -1.91164695300681
   15      0.36929291728398     0.07932112778752    -0.34400030971261
   16     -0.15659477146964     0.24802754091531    -0.62138414356488
   17     -0.04312237220777     0.06387982246445    -1.93356957144617
   18     -0.10203958651371     0.06415701464251    -1.03095466672504
   19      0.26031031102959     0.00531282978760     1.36320954012266
   20      0.79438695174345    -0.01912443733789    -1.41880948766921
   21      0.97464591701683     0.00889372515572     0.45971435897131
   22     -0.12940091930043    -0.19511573045643     0.76985756882043
   23      0.38499624239188    -0.42269233477720     0.13061831000571
   24      0.24650992546365    -0.55766400192060     0.13913646911862
   25     -0.06640589003240     0.17731510446310     0.78015973197999
   26      0.36061725125530     0.39650695270886     0.05986008278563
   27      0.25664387589683     0.56735176253129     0.05507610794020
   28     -1.48914209631721     0.03703949929580    -1.02499123850178
   29     -1.30911103695136    -0.02725236581981    -1.12893552338610
   30      0.11019165894721    -0.08484133920591    40.24228766006496
 frms,max,avg= 5.9985915E+00 4.0242288E+01  -6.033E-03  2.201E-03  6.896E-03 h/b

 cartesian forces (eV/Angstrom) at end:
    1     15.18692507674682   -10.62213804020738 -2013.16201634401659
    2    -10.56131914500836    21.10596073986310   191.37647514669601
    3    -10.34756549349740    19.50325517791347    92.31444582478289
    4    -19.80975238146795     4.17177669507806   176.88672057346042
    5     18.82422051382602   -28.85669570170905   191.26152304501557
    6     13.52272692483624   -19.65904560267415    73.95363535848738
    7    -20.14926950605239    -4.46234141619058   -45.04033801554007
    8     -8.84838106325405    -0.53885231704835  -110.15192931594606
    9     -9.88670073173063    -5.65718457963158   -50.58788753153061
   10      3.60824212235852     2.84664554672464   -79.17201501682928
   11     -8.32025099720223     9.00468299165187   -84.27173158782767
   12    -11.61507921405260     9.18692954283087   -16.40980039227459
   13      7.97793126068558   -10.71708231713900  -105.46142700179500
   14     16.67267568734771    -2.84675655907725   -98.30083041873974
   15     18.98980372901765     4.07885604556851   -17.68920566418650
   16     -8.05242623408405    12.75408788235933   -31.95285469703945
   17     -2.21744134866638     3.28483226747503   -99.42813668946739
   18     -5.24708606581628     3.29908606117174   -53.01381602065366
   19     13.38569326335142     0.27319666906731    70.09904711643112
   20     40.84901603163039    -0.98341802530450   -72.95811113265414
   21     50.11830393488309     0.45733369697191    23.63946081739572
   22     -6.65406224939880   -10.03325342132738    39.58766455289634
   23     19.79730110504445   -21.73571194978237     6.71666299117546
   24     12.67604896470218   -28.67623354679009     7.15468430736090
   25     -3.41472787358216     9.11790850663726    40.11742303790388
   26     18.54368308225649    20.38920557835155     3.07812895969427
   27     13.19715760426407    29.17439818510380     2.83212710288250
   28    -76.57475897902542     1.90464747339689   -52.70716423771508
   29    -67.31719046775139    -1.40137287732411   -58.05219382350696
   30      5.66628244963950    -4.36271670595952  2069.34145905554124
 frms,max,avg= 3.0845995E+02 2.0693415E+03  -3.102E-01  1.132E-01  3.546E-01 e/A
 length scales=  8.680800000000  8.680800000000 50.000000000000 bohr
              =  4.593681512328  4.593681512328 26.458860429500 angstroms
 prteigrs : about to open file DOSwithoutGeom_o_EIG
 Fermi (or HOMO) energy (hartree) =   0.25332   Average Vxc (hartree)=  -0.35325
 Eigenvalues (hartree) for nkpt=   2  k points:
 kpt#   1, nband=184, wtk=  0.50000, kpt=  0.1250  0.5000  0.5000 (reduced coord)
  -4.62815   -3.35267   -3.32613   -3.07422   -3.04772   -3.01888   -3.01674   -2.99231
  -2.96070   -2.93786   -2.89958   -2.89100   -2.85404   -2.82210   -2.76597   -2.23799
  -2.21784   -2.10049   -2.07681   -2.07448   -1.95689   -1.95410   -1.93793   -1.93651
  -1.92322   -1.91672   -1.81690   -1.81091   -1.79826   -1.78361   -1.77823   -1.74400
  -1.72452   -1.71476   -1.71227   -1.70554   -1.69628   -1.68217   -1.66957   -1.66754
  -1.66643   -1.65956   -1.63929   -1.63279   -1.60883   -1.59617   -1.58883   -1.58151
  -1.57026   -1.56312   -1.53672   -1.51581   -1.50877   -1.50450   -1.49318   -1.47893
  -1.23127   -1.22092   -1.21332   -1.21067   -1.20445   -1.20188   -1.19933   -1.19760
  -1.18885   -1.08621   -1.08411   -1.07596   -1.07263   -1.05983   -1.04772   -0.94752
  -0.91386   -0.89141   -0.78333   -0.65399   -0.56665   -0.55600   -0.49684   -0.49343
  -0.48678   -0.45415   -0.43469   -0.38211   -0.37851   -0.36598   -0.36139   -0.36123
  -0.35764   -0.34848   -0.34030   -0.32929   -0.28703   -0.28034   -0.25576   -0.24123
  -0.21831   -0.21614   -0.16376   -0.15555   -0.15406   -0.14526   -0.13969   -0.12562
  -0.08390   -0.07929   -0.06826   -0.06417   -0.05722   -0.04893   -0.04041   -0.02984
  -0.01755   -0.01587   -0.01076   -0.00512   -0.00094   -0.00030    0.00280    0.00400
   0.00626    0.00924    0.01596    0.01715    0.02418    0.03059    0.03413    0.03598
   0.03941    0.04183    0.04443    0.04582    0.05086    0.05566    0.05834    0.06379
   0.06730    0.06898    0.06996    0.07108    0.07306    0.07922    0.08399    0.08543
   0.08634    0.08884    0.09651    0.10124    0.10651    0.11066    0.11714    0.12068
   0.12288    0.13070    0.13452    0.13529    0.13901    0.14217    0.14910    0.15145
   0.15375    0.15856    0.16018    0.16211    0.16270    0.16903    0.16971    0.17602
   0.18832    0.19277    0.19714    0.20553    0.20930    0.21627    0.22108    0.22874
   0.23590    0.23829    0.24565    0.25250    0.26016    0.26773    0.28615    0.30524
 prteigrs : prtvol=0 or 1, do not print more k-points.


--------------------------------------------------------------------------------
 Components of total free energy (in Hartree) :

    Kinetic energy  =  8.62371573464150E+02
    Hartree energy  =  3.30169362188447E+03
    XC energy       = -3.61851780713078E+02
    Ewald energy    =  8.46303212306437E+02
    PspCore energy  =  4.54361029126917E+01
    Loc. psp. energy= -6.79280251598305E+03
    NL   psp  energy= -1.33974162316252E+01
    >>>>>>>>> Etotal= -2.11224720236000E+03

 Other information on the energy :
    Total energy(eV)= -5.74771694306291E+04 ; Band energy (Ha)=  -2.8470065091E+02
--------------------------------------------------------------------------------

 Cartesian components of stress tensor (hartree/bohr^3)
  sigma(1 1)= -1.43614511E-02  sigma(3 2)=  1.98802970E-04
  sigma(2 2)= -1.54261920E-02  sigma(3 1)= -1.28409442E-03
  sigma(3 3)= -1.27039757E-02  sigma(2 1)= -2.76991531E-04

-Cartesian components of stress tensor (GPa)         [Pressure=  4.1672E+02 GPa]
- sigma(1 1)= -4.22528409E+02  sigma(3 2)=  5.84898433E+00
- sigma(2 2)= -4.53854160E+02  sigma(3 1)= -3.77793557E+01
- sigma(3 3)= -3.73763807E+02  sigma(2 1)= -8.14937082E+00

== END DATASET(S) ==============================================================
================================================================================
  
 -outvars: echo values of variables after computation  --------
            acell      8.6808000000E+00  8.6808000000E+00  5.0000000000E+01 Bohr
              amu      4.78800000E+01  1.59994000E+01  1.06420000E+02
           diemac      1.20000000E+01
             ecut      6.00000000E+01 Hartree
           etotal     -2.1122472024E+03
            fcart      2.9533869577E-01 -2.0656771395E-01 -3.9149771350E+01
                      -2.0538497465E-01  4.1044562255E-01  3.7216802140E+00
                      -2.0122812760E-01  3.7927795905E-01  1.7952302979E+00
                      -3.8523838119E-01  8.1128146871E-02  3.4398993271E+00
                       3.6607283616E-01 -5.6117343238E-01  3.7194447514E+00
                       2.6297519169E-01 -3.8230760071E-01  1.4381693531E+00
                      -3.9184093860E-01 -8.6778731524E-02 -8.7589519400E-01
                      -1.7207362976E-01 -1.0479010051E-02 -2.1421141525E+00
                      -1.9226573416E-01 -1.1001473353E-01 -9.8377786481E-01
                       7.0169143328E-02  5.5358446745E-02 -1.5396506889E+00
                      -1.6180313431E-01  1.7511321858E-01 -1.6388243948E+00
                      -2.2587734706E-01  1.7865735003E-01 -3.1911983638E-01
                       1.5514607477E-01 -2.0841408632E-01 -2.0508983976E+00
                       3.2423194738E-01 -5.5360605591E-02 -1.9116469530E+00
                       3.6929291728E-01  7.9321127788E-02 -3.4400030971E-01
                      -1.5659477147E-01  2.4802754092E-01 -6.2138414356E-01
                      -4.3122372208E-02  6.3879822464E-02 -1.9335695714E+00
                      -1.0203958651E-01  6.4157014643E-02 -1.0309546667E+00
                       2.6031031103E-01  5.3128297876E-03  1.3632095401E+00
                       7.9438695174E-01 -1.9124437338E-02 -1.4188094877E+00
                       9.7464591702E-01  8.8937251557E-03  4.5971435897E-01
                      -1.2940091930E-01 -1.9511573046E-01  7.6985756882E-01
                       3.8499624239E-01 -4.2269233478E-01  1.3061831001E-01
                       2.4650992546E-01 -5.5766400192E-01  1.3913646912E-01
                      -6.6405890032E-02  1.7731510446E-01  7.8015973198E-01
                       3.6061725126E-01  3.9650695271E-01  5.9860082786E-02
                       2.5664387590E-01  5.6735176253E-01  5.5076107940E-02
                      -1.4891420963E+00  3.7039499296E-02 -1.0249912385E+00
                      -1.3091110370E+00 -2.7252365820E-02 -1.1289355234E+00
                       1.1019165895E-01 -8.4841339206E-02  4.0242287660E+01
-          fftalg         112
              ixc          11
              kpt      1.25000000E-01  5.00000000E-01  5.00000000E-01
                       3.75000000E-01  5.00000000E-01  5.00000000E-01
           kptopt           2
         kptrlatt        4    0    0      0    1    0      0    0    1
          kptrlen      8.68080000E+00
P           mkmem           2
            natom          30
            nband         184
            ngfft          64      64     360
             nkpt           2
            nstep          10
             nsym           1
           ntypat           3
              occ      2.000000  2.000000  2.000000  2.000000  2.000000  2.000000
                       2.000000  2.000000  2.000000  2.000000  2.000000  2.000000
                       2.000000  2.000000  2.000000  2.000000  2.000000  2.000000
                       2.000000  2.000000  2.000000  2.000000  2.000000  2.000000
                       2.000000  2.000000  2.000000  2.000000  2.000000  2.000000
                       2.000000  2.000000  2.000000  2.000000  2.000000  2.000000
                       2.000000  2.000000  2.000000  2.000000  2.000000  2.000000
                       2.000000  2.000000  2.000000  2.000000  2.000000  2.000000
                       2.000000  2.000000  2.000000  2.000000  2.000000  2.000000
                       2.000000  2.000000  2.000000  2.000000  2.000000  2.000000
                       2.000000  2.000000  2.000000  2.000000  2.000000  2.000000
                       2.000000  2.000000  2.000000  2.000000  2.000000  2.000000
                       2.000000  2.000000  2.000000  2.000000  2.000000  2.000000
                       2.000000  2.000000  2.000000  2.000000  2.000000  2.000000
                       2.000000  2.000000  2.000000  2.000000  2.000000  2.000000
                       2.000000  2.000000  2.000000  2.000000  2.000000  2.000000
                       2.000000  2.000000  2.000000  2.000000  2.000000  2.000000
                       2.000000  2.000000  2.000000  2.000000  2.000000  2.000000
                       2.000000  2.000000  2.000000  2.000000  2.000000  2.000000
                       2.000000  2.000000  2.000000  2.000000  2.000000  2.000000
                       2.000000  2.000000  2.000000  2.000000  2.000000  2.000000
                       2.000000  2.000000  2.000000  2.000000  2.000000  2.000000
                       2.000000  2.000000  2.000000  2.000000  2.000000  2.000000
                       2.000000  2.000000  2.000000  2.000000  2.000000  2.000000
                       2.000000  2.000000  2.000000  2.000000  2.000000  2.000000
                       2.000000  2.000000  2.000000  2.000000  2.000000  2.000000
                       2.000000  2.000000  2.000000  2.000000  2.000000  2.000000
                       2.000000  2.000000  2.000000  2.000000  2.000000  2.000000
                       2.000000  2.000000  2.000000  2.000000  2.000000  2.000000
                       2.000000  2.000000  2.000000  2.000000  2.000000  2.000000
                       0.000000  0.000000  0.000000  0.000000
           prtdos           2
           shiftk      5.00000000E-01  5.00000000E-01  5.00000000E-01
          spgroup           1
           strten     -1.4361451147E-02 -1.5426191959E-02 -1.2703975716E-02
                       1.9880297023E-04 -1.2840944180E-03 -2.7699153073E-04
           toldfe      1.00000000E-02 Hartree
            typat      1  1  1  1  1  1  2  2  2  2  2  2  2  2  2  2  2  2  3  3
                       3  3  3  3  3  3  3  3  3  3
              wtk        0.50000    0.50000
           xangst      0.0000000000E+00  0.0000000000E+00  0.0000000000E+00
                       0.0000000000E+00  0.0000000000E+00  4.5936815123E+00
                       0.0000000000E+00  0.0000000000E+00  9.1873630247E+00
                       2.2968407562E+00  1.4793678043E+00  2.2968407562E+00
                       2.2968407562E+00  1.4793678043E+00  6.8905222685E+00
                       2.2968407562E+00  1.4793678043E+00  1.1484203781E+01
                       3.9876836484E+01  0.0000000000E+00  1.4240158683E+00
                       3.9876836484E+01  0.0000000000E+00  6.0176973806E+00
                       3.9876836484E+01  0.0000000000E+00  1.0611378893E+01
                       3.1696656440E+00  0.0000000000E+00  3.1696656440E+00
                       3.1696656440E+00  0.0000000000E+00  7.7633471563E+00
                       3.1696656440E+00  0.0000000000E+00  1.2357028669E+01
                       8.7282488785E-01  1.4793678043E+00  3.7208566245E+00
                       8.7282488785E-01  1.4793678043E+00  8.3145381368E+00
                       8.7282488785E-01  1.4793678043E+00  1.2908219649E+01
                       3.7208566245E+00  1.4793678043E+00  8.7282488785E-01
                       3.7208566245E+00  1.4793678043E+00  5.4665064002E+00
                       3.7208566245E+00  1.4793678043E+00  1.0060187913E+01
                       8.7282488785E-01  0.0000000000E+00  1.6691519184E+01
                       8.7282488785E-01  0.0000000000E+00  2.0582241693E+01
                       8.7282488785E-01  0.0000000000E+00  2.4472964201E+01
                       1.9453612542E+00  1.3755961537E+00  1.8067115338E+01
                       1.9453612542E+00  1.3755961537E+00  2.1957837846E+01
                       1.9453612542E+00  1.3755961537E+00  2.5848560355E+01
                       1.9453612542E+00 -1.3755961537E+00  1.8067115338E+01
                       1.9453612542E+00 -1.3755961537E+00  2.1957837846E+01
                       1.9453612542E+00 -1.3755961537E+00  2.5848560355E+01
                       0.0000000000E+00  0.0000000000E+00  1.9442658574E+01
                       0.0000000000E+00  0.0000000000E+00  2.3333381082E+01
                       0.0000000000E+00  0.0000000000E+00  2.7224103591E+01
            xcart      0.0000000000E+00  0.0000000000E+00  0.0000000000E+00
                       0.0000000000E+00  0.0000000000E+00  8.6808000000E+00
                       0.0000000000E+00  0.0000000000E+00  1.7361600000E+01
                       4.3404000000E+00  2.7956000000E+00  4.3404000000E+00
                       4.3404000000E+00  2.7956000000E+00  1.3021200000E+01
                       4.3404000000E+00  2.7956000000E+00  2.1702000000E+01
                       7.5356300000E+01  0.0000000000E+00  2.6910000000E+00
                       7.5356300000E+01  0.0000000000E+00  1.1371800000E+01
                       7.5356300000E+01  0.0000000000E+00  2.0052600000E+01
                       5.9898000000E+00  0.0000000000E+00  5.9898000000E+00
                       5.9898000000E+00  0.0000000000E+00  1.4670600000E+01
                       5.9898000000E+00  0.0000000000E+00  2.3351400000E+01
                       1.6494000000E+00  2.7956000000E+00  7.0314000000E+00
                       1.6494000000E+00  2.7956000000E+00  1.5712200000E+01
                       1.6494000000E+00  2.7956000000E+00  2.4393000000E+01
                       7.0314000000E+00  2.7956000000E+00  1.6494000000E+00
                       7.0314000000E+00  2.7956000000E+00  1.0330200000E+01
                       7.0314000000E+00  2.7956000000E+00  1.9011000000E+01
                       1.6494000000E+00  0.0000000000E+00  3.1542400000E+01
                       1.6494000000E+00  0.0000000000E+00  3.8894800000E+01
                       1.6494000000E+00  0.0000000000E+00  4.6247200000E+01
                       3.6762000000E+00  2.5995000000E+00  3.4141900000E+01
                       3.6762000000E+00  2.5995000000E+00  4.1494300000E+01
                       3.6762000000E+00  2.5995000000E+00  4.8846700000E+01
                       3.6762000000E+00 -2.5995000000E+00  3.4141900000E+01
                       3.6762000000E+00 -2.5995000000E+00  4.1494300000E+01
                       3.6762000000E+00 -2.5995000000E+00  4.8846700000E+01
                       0.0000000000E+00  0.0000000000E+00  3.6741300000E+01
                       0.0000000000E+00  0.0000000000E+00  4.4093700000E+01
                       0.0000000000E+00  0.0000000000E+00  5.1446100000E+01
             xred      0.0000000000E+00  0.0000000000E+00  0.0000000000E+00
                       0.0000000000E+00  0.0000000000E+00  1.7361600000E-01
                       0.0000000000E+00  0.0000000000E+00  3.4723200000E-01
                       5.0000000000E-01  3.2204405124E-01  8.6808000000E-02
                       5.0000000000E-01  3.2204405124E-01  2.6042400000E-01
                       5.0000000000E-01  3.2204405124E-01  4.3404000000E-01
                       8.6808013086E+00  0.0000000000E+00  5.3820000000E-02
                       8.6808013086E+00  0.0000000000E+00  2.2743600000E-01
                       8.6808013086E+00  0.0000000000E+00  4.0105200000E-01
                       6.9000552944E-01  0.0000000000E+00  1.1979600000E-01
                       6.9000552944E-01  0.0000000000E+00  2.9341200000E-01
                       6.9000552944E-01  0.0000000000E+00  4.6702800000E-01
                       1.9000552944E-01  3.2204405124E-01  1.4062800000E-01
                       1.9000552944E-01  3.2204405124E-01  3.1424400000E-01
                       1.9000552944E-01  3.2204405124E-01  4.8786000000E-01
                       8.0999447056E-01  3.2204405124E-01  3.2988000000E-02
                       8.0999447056E-01  3.2204405124E-01  2.0660400000E-01
                       8.0999447056E-01  3.2204405124E-01  3.8022000000E-01
                       1.9000552944E-01  0.0000000000E+00  6.3084800000E-01
                       1.9000552944E-01  0.0000000000E+00  7.7789600000E-01
                       1.9000552944E-01  0.0000000000E+00  9.2494400000E-01
                       4.2348631463E-01  2.9945396738E-01  6.8283800000E-01
                       4.2348631463E-01  2.9945396738E-01  8.2988600000E-01
                       4.2348631463E-01  2.9945396738E-01  9.7693400000E-01
                       4.2348631463E-01 -2.9945396738E-01  6.8283800000E-01
                       4.2348631463E-01 -2.9945396738E-01  8.2988600000E-01
                       4.2348631463E-01 -2.9945396738E-01  9.7693400000E-01
                       0.0000000000E+00  0.0000000000E+00  7.3482600000E-01
                       0.0000000000E+00  0.0000000000E+00  8.8187400000E-01
                       0.0000000000E+00  0.0000000000E+00  1.0289220000E+00
            znucl       22.00000    8.00000   46.00000

================================================================================

- Total cpu        time (s,m,h):       5679.0       94.65      1.577
- Total wall clock time (s,m,h):       5695.7       94.93      1.582
-
- For major independent code sections, cpu and wall times (sec),
-  as well as % of the time and number of calls for node 0-
-<BEGIN_TIMER mpi_nprocs = 1, omp_nthreads = 1, mpi_rank = 0>
- cpu_time =         5679.0, wall_time =         5695.7
-
- routine                        cpu     %       wall     %      number of calls  Gflops    Speedup Efficacity
-                                                                  (-1=no count)
- projbd                      2295.062  40.4   2304.254  40.5          35174      -1.00        1.00       1.00
- nonlop(apply)               1671.219  29.4   1675.070  29.4          22003      -1.00        1.00       1.00
- fourwf%(pot)                 785.375  13.8    787.312  13.8          22003      -1.00        1.00       1.00
- vtowfk(ssdiag)               369.188   6.5    370.033   6.5             -1      -1.00        1.00       1.00
- nonlop(forstr)                83.797   1.5     83.832   1.5            360      -1.00        1.00       1.00
- fourwf%(den)                  72.844   1.3     73.386   1.3           3600      -1.00        0.99       0.99
- others (107)                  56.328   1.0     55.912   1.0             -1      -1.00        1.01       1.01
-<END_TIMER>
-
- subtotal                    5333.812  93.9   5349.799  93.9                                  1.00       1.00

- For major independent code sections, cpu and wall times (sec),
- as well as % of the total time and number of calls 

-<BEGIN_TIMER mpi_nprocs = 1, omp_nthreads = 1, mpi_rank = world>
- cpu_time =        5679.0, wall_time =        5695.7
-
- routine                         cpu     %       wall     %      number of calls Gflops    Speedup Efficacity
-                                                                  (-1=no count)
- projbd                      2295.062  40.4   2304.254  40.5          35174      -1.00        1.00       1.00
- nonlop(apply)               1671.219  29.4   1675.070  29.4          22003      -1.00        1.00       1.00
- fourwf%(pot)                 785.375  13.8    787.312  13.8          22003      -1.00        1.00       1.00
- vtowfk(ssdiag)               369.188   6.5    370.033   6.5             -1      -1.00        1.00       1.00
- nonlop(forstr)                83.797   1.5     83.832   1.5            360      -1.00        1.00       1.00
- fourwf%(den)                  72.844   1.3     73.386   1.3           3600      -1.00        0.99       0.99
- others (107)                  56.328   1.0     55.912   1.0             -1      -1.00        1.01       1.01
-<END_TIMER>

- subtotal                    5333.812  93.9   5349.799  93.9                                  1.00       1.00

================================================================================

 Suggested references for the acknowledgment of ABINIT usage.

 The users of ABINIT have little formal obligations with respect to the ABINIT group
 (those specified in the GNU General Public License, http://www.gnu.org/copyleft/gpl.txt).
 However, it is common practice in the scientific literature,
 to acknowledge the efforts of people that have made the research possible.
 In this spirit, please find below suggested citations of work written by ABINIT developers,
 corresponding to implementations inside of ABINIT that you have used in the present run.
 Note also that it will be of great value to readers of publications presenting these results,
 to read papers enabling them to understand the theoretical formalism and details
 of the ABINIT implementation.
 For information on why they are suggested, see also https://www.abinit.org/about/?text=acknowledgments.
-
- [1] Recent developments in the ABINIT software package.
- Computer Phys. Comm. 205, 106 (2016).
- X.Gonze, F.Jollet, F.Abreu Araujo, D.Adams, B.Amadon, T.Applencourt,
- C.Audouze, J.-M.Beuken, J.Bieder, A.Bokhanchuk, E.Bousquet, F.Bruneval
- D.Caliste, M.Cote, F.Dahm, F.Da Pieve, M.Delaveau, M.Di Gennaro,
- B.Dorado, C.Espejo, G.Geneste, L.Genovese, A.Gerossier, M.Giantomassi,
- Y.Gillet, D.R.Hamann, L.He, G.Jomard, J.Laflamme Janssen, S.Le Roux,
- A.Levitt, A.Lherbier, F.Liu, I.Lukacevic, A.Martin, C.Martins,
- M.J.T.Oliveira, S.Ponce, Y.Pouillon, T.Rangel, G.-M.Rignanese,
- A.H.Romero, B.Rousseau, O.Rubel, A.A.Shukri, M.Stankovski, M.Torrent,
- M.J.Van Setten, B.Van Troeye, M.J.Verstraete, D.Waroquier, J.Wiktor,
- B.Xue, A.Zhou, J.W.Zwanziger.
- Comment : the fourth generic paper describing the ABINIT project.
- Note that a version of this paper, that is not formatted for Computer Phys. Comm. 
- is available at https://www.abinit.org/about/ABINIT16.pdf .
- The licence allows the authors to put it on the Web.
-
- [2] Optimized norm-conserving Vanderbilt pseudopotentials.
- D.R. Hamann, Phys. Rev. B 88, 085117 (2013).
- Comment: Some pseudopotential generated using the ONCVPSP code were used.
-
- [3] ABINIT : First-principles approach of materials and nanosystem properties.
- Computer Phys. Comm. 180, 2582-2615 (2009).
- X. Gonze, B. Amadon, P.-M. Anglade, J.-M. Beuken, F. Bottin, P. Boulanger, F. Bruneval,
- D. Caliste, R. Caracas, M. Cote, T. Deutsch, L. Genovese, Ph. Ghosez, M. Giantomassi
- S. Goedecker, D.R. Hamann, P. Hermet, F. Jollet, G. Jomard, S. Leroux, M. Mancini, S. Mazevet,
- M.J.T. Oliveira, G. Onida, Y. Pouillon, T. Rangel, G.-M. Rignanese, D. Sangalli, R. Shaltaf,
- M. Torrent, M.J. Verstraete, G. Zerah, J.W. Zwanziger
- Comment : the third generic paper describing the ABINIT project.
- Note that a version of this paper, that is not formatted for Computer Phys. Comm. 
- is available at https://www.abinit.org/about/ABINIT_CPC_v10.pdf .
- The licence allows the authors to put it on the Web.
-
- [4] A brief introduction to the ABINIT software package.
- Z. Kristallogr. 220, 558-562 (2005).
- X. Gonze, G.-M. Rignanese, M. Verstraete, J.-M. Beuken, Y. Pouillon, R. Caracas, F. Jollet,
- M. Torrent, G. Zerah, M. Mikami, Ph. Ghosez, M. Veithen, J.-Y. Raty, V. Olevano, F. Bruneval,
- L. Reining, R. Godby, G. Onida, D.R. Hamann, and D.C. Allan.
- Comment : the second generic paper describing the ABINIT project. Note that this paper
- should be cited especially if you are using the GW part of ABINIT, as several authors
- of this part are not in the list of authors of the first or third paper.
- The .pdf of the latter paper is available at https://www.abinit.org/about/zfk_0505-06_558-562.pdf.
- Note that it should not redistributed (Copyright by Oldenburg Wissenshaftverlag,
- the licence allows the authors to put it on the Web).
-
- And optionally:
-
- [5] First-principles computation of material properties : the ABINIT software project. 
- X. Gonze, J.-M. Beuken, R. Caracas, F. Detraux, M. Fuchs, G.-M. Rignanese, L. Sindic,
- M. Verstraete, G. Zerah, F. Jollet, M. Torrent, A. Roy, M. Mikami, Ph. Ghosez, J.-Y. Raty, D.C. Allan.
- Computational Materials Science 25, 478-492 (2002). http://dx.doi.org/10.1016/S0927-0256(02)00325-7
- Comment : the original paper describing the ABINIT project.
-
- Proc.   0 individual time (sec): cpu=       5679.0  wall=       5695.8

================================================================================

 Calculation completed.
.Delivered   3 WARNINGs and   2 COMMENTs to log file.
+Overall time at end (sec) : cpu=       5679.0  wall=       5695.8
