
.Version 8.6.3 of ABINIT 
.(sequential version, prepared for a x86_64_linux_gnu5.4 computer) 

.Copyright (C) 1998-2017 ABINIT group . 
 ABINIT comes with ABSOLUTELY NO WARRANTY.
 It is free software, and you are welcome to redistribute it
 under certain conditions (GNU General Public License,
 see ~abinit/COPYING or http://www.gnu.org/copyleft/gpl.txt).

 ABINIT is a project of the Universite Catholique de Louvain,
 Corning Inc. and other collaborators, see ~abinit/doc/developers/contributors.txt .
 Please read ~abinit/doc/users/acknowledgments.html for suggested
 acknowledgments of the ABINIT effort.
 For more information, see https://www.abinit.org .

.Starting date : Sat 21 Apr 2018.
- ( at 19h41 )
  
- input  file    -> sim4geom.in
- output file    -> sim4geom.out
- root for input  files -> sim4geom_i
- root for output files -> sim4geom_o


 Symmetries : space group P1 (#  1); Bravais aP (primitive triclinic)
================================================================================
 Values of the parameters that define the memory need of the present run
     intxc =       0    ionmov =       0      iscf =       7    lmnmax =       6
     lnmax =       6     mgfft =     200  mpssoang =       3    mqgrid =    3184
     natom =      10  nloc_mem =       1    nspden =       1   nspinor =       1
    nsppol =       1      nsym =       1    n1xccc =    2501    ntypat =       3
    occopt =       1   xclevel =       1
-    mband =          54        mffmem =           1         mkmem =          16
       mpw =        2064          nfft =      180000          nkpt =          16
================================================================================
P This job should need less than                      76.488 Mbytes of memory.
  Rough estimation (10% accuracy) of disk space for files :
_ WF disk file :     27.213 Mbytes ; DEN or POT disk file :      1.375 Mbytes.
================================================================================

--------------------------------------------------------------------------------
------------- Echo of variables that govern the present computation ------------
--------------------------------------------------------------------------------
-
- outvars: echo of selected default values                                      
-   iomode0 =  0 , fftalg0 =112 , wfoptalg0 =  0
-
- outvars: echo of global parameters not present in the input file              
-  max_nthreads =    0
-
 -outvars: echo values of preprocessed input variables --------
            acell      8.6808000000E+00  8.6808000000E+00  2.5000000000E+01 Bohr
              amu      4.78800000E+01  1.59994000E+01  1.06420000E+02
           diemac      1.20000000E+01
             ecut      8.00000000E+00 Hartree
-          fftalg         112
           istwfk        0    0    0    0    0    7    0    0    5    0
                         0    0    0    6    0    4
              kpt     -1.25000000E-01  0.00000000E+00  0.00000000E+00
                      -2.50000000E-01  5.00000000E-01  0.00000000E+00
                      -1.25000000E-01  5.00000000E-01  5.00000000E-01
                      -3.75000000E-01  0.00000000E+00  0.00000000E+00
                      -2.50000000E-01  0.00000000E+00  5.00000000E-01
                       5.00000000E-01  5.00000000E-01  0.00000000E+00
                      -3.75000000E-01  5.00000000E-01  5.00000000E-01
                       3.75000000E-01  0.00000000E+00  0.00000000E+00
                       5.00000000E-01  0.00000000E+00  5.00000000E-01
                       2.50000000E-01  5.00000000E-01  0.00000000E+00
                       3.75000000E-01  5.00000000E-01  5.00000000E-01
                       1.25000000E-01  0.00000000E+00  0.00000000E+00
                       2.50000000E-01  0.00000000E+00  5.00000000E-01
                       0.00000000E+00  5.00000000E-01  0.00000000E+00
                       1.25000000E-01  5.00000000E-01  5.00000000E-01
                       0.00000000E+00  0.00000000E+00  5.00000000E-01
           kptopt           3
         kptrlatt        4   -1    1      0    2    0     -4   -1    1
          kptrlen      1.73616000E+01
P           mkmem          16
            natom          10
            nband          54
            ngfft          30      30     200
             nkpt          16
            nstep          20
             nsym           1
           ntypat           3
              occ      2.000000  2.000000  2.000000  2.000000  2.000000  2.000000
                       2.000000  2.000000  2.000000  2.000000  2.000000  2.000000
                       2.000000  2.000000  2.000000  2.000000  2.000000  2.000000
                       2.000000  2.000000  2.000000  2.000000  2.000000  2.000000
                       2.000000  2.000000  2.000000  2.000000  2.000000  2.000000
                       2.000000  2.000000  2.000000  2.000000  2.000000  2.000000
                       2.000000  2.000000  2.000000  2.000000  2.000000  2.000000
                       2.000000  2.000000  2.000000  2.000000  2.000000  2.000000
                       2.000000  2.000000  2.000000  2.000000  0.000000  0.000000
           shiftk      5.00000000E-01  0.00000000E+00  5.00000000E-01
          spgroup           1
           toldfe      1.00000000E-04 Hartree
            typat      1  1  2  2  2  2  3  3  3  3
              wtk        0.06250    0.06250    0.06250    0.06250    0.06250    0.06250
                         0.06250    0.06250    0.06250    0.06250    0.06250    0.06250
                         0.06250    0.06250    0.06250    0.06250
           xangst      0.0000000000E+00  0.0000000000E+00  0.0000000000E+00
                       2.2968407562E+00  1.4793678043E+00  2.2968407562E+00
                       3.9876836484E+01  0.0000000000E+00  1.4240158683E+00
                       3.1696656440E+00  0.0000000000E+00  3.1696656440E+00
                       8.7282488785E-01  1.4793678043E+00  3.7208566245E+00
                       3.7208566245E+00  1.4793678043E+00  8.7282488785E-01
                       8.7282488785E-01  0.0000000000E+00  7.5041561596E+00
                       1.9453612542E+00  1.3755961537E+00  8.8797523133E+00
                       1.9453612542E+00 -1.3755961537E+00  8.8797523133E+00
                       0.0000000000E+00  0.0000000000E+00  1.0255295549E+01
            xcart      0.0000000000E+00  0.0000000000E+00  0.0000000000E+00
                       4.3404000000E+00  2.7956000000E+00  4.3404000000E+00
                       7.5356300000E+01  0.0000000000E+00  2.6910000000E+00
                       5.9898000000E+00  0.0000000000E+00  5.9898000000E+00
                       1.6494000000E+00  2.7956000000E+00  7.0314000000E+00
                       7.0314000000E+00  2.7956000000E+00  1.6494000000E+00
                       1.6494000000E+00  0.0000000000E+00  1.4180800000E+01
                       3.6762000000E+00  2.5995000000E+00  1.6780300000E+01
                       3.6762000000E+00 -2.5995000000E+00  1.6780300000E+01
                       0.0000000000E+00  0.0000000000E+00  1.9379700000E+01
             xred      0.0000000000E+00  0.0000000000E+00  0.0000000000E+00
                       5.0000000000E-01  3.2204405124E-01  1.7361600000E-01
                       8.6808013086E+00  0.0000000000E+00  1.0764000000E-01
                       6.9000552944E-01  0.0000000000E+00  2.3959200000E-01
                       1.9000552944E-01  3.2204405124E-01  2.8125600000E-01
                       8.0999447056E-01  3.2204405124E-01  6.5976000000E-02
                       1.9000552944E-01  0.0000000000E+00  5.6723200000E-01
                       4.2348631463E-01  2.9945396738E-01  6.7121200000E-01
                       4.2348631463E-01 -2.9945396738E-01  6.7121200000E-01
                       0.0000000000E+00  0.0000000000E+00  7.7518800000E-01
            znucl       22.00000    8.00000   46.00000

================================================================================

 chkinp: Checking input parameters for consistency.

================================================================================
== DATASET  1 ==================================================================
-   nproc =    1

 Exchange-correlation functional for the present dataset will be:
  LDA: new Teter (4/93) with spin-polarized option - ixc=1
 Citation for XC functional:
  S. Goedecker, M. Teter, J. Huetter, PRB 54, 1703 (1996)

 Real(R)+Recip(G) space primitive vectors, cartesian coordinates (Bohr,Bohr^-1):
 R(1)=  8.6808000  0.0000000  0.0000000  G(1)=  0.1151968  0.0000000  0.0000000
 R(2)=  0.0000000  8.6808000  0.0000000  G(2)=  0.0000000  0.1151968  0.0000000
 R(3)=  0.0000000  0.0000000 25.0000000  G(3)=  0.0000000  0.0000000  0.0400000
 Unit cell volume ucvol=  1.8839072E+03 bohr^3
 Angles (23,13,12)=  9.00000000E+01  9.00000000E+01  9.00000000E+01 degrees

 getcut: wavevector=  0.0000  0.0000  0.0000  ngfft=  30  30 200
         ecut(hartree)=      8.000   => boxcut(ratio)=   2.71426

 getcut : COMMENT -
  Note that boxcut > 2.2 ; recall that boxcut=Gcut(box)/Gcut(sphere) = 2
  is sufficient for exact treatment of convolution.
  Such a large boxcut is a waste : you could raise ecut
  e.g. ecut=   14.734411 Hartrees makes boxcut=2


--- Pseudopotential description ------------------------------------------------
- pspini: atom type   1  psp file is ../../../Psps_for_tests/22ti.pspnc
- pspatm: opening atomic psp file    ../../../Psps_for_tests/22ti.pspnc
-  Troullier-Martins psp for element  Ti        Thu Oct 27 17:33:40 EDT 1994
- 22.00000   4.00000    940714                znucl, zion, pspdat
    1    1    2    0      2001   0.00000      pspcod,pspxc,lmax,lloc,mmax,r2well
    0   5.166   8.509    0   2.4203472        l,e99.0,e99.9,nproj,rcpsp
   0.00000000   0.00000000   0.00000000   0.00000000     rms, ekb1, ekb2, epsatm
    1   2.285   3.944    1   2.9934301        l,e99.0,e99.9,nproj,rcpsp
   0.00000000   0.00000000   0.00000000   0.00000000     rms, ekb1, ekb2, epsatm
    2  20.947  27.069    1   1.9326638        l,e99.0,e99.9,nproj,rcpsp
   0.00000000   0.00000000   0.00000000   0.00000000     rms, ekb1, ekb2, epsatm
    2.82741504495369    0.09256629068341    1.82586447305099   rchrg,fchrg,qchrg
  pspatm : epsatm=   66.67453488
         --- l  ekb(1:nproj) -->
             1    0.915537
             2   -8.015692
 pspatm: atomic psp has been read  and splines computed

- pspini: atom type   2  psp file is ../../../Psps_for_tests/8o.pspnc
- pspatm: opening atomic psp file    ../../../Psps_for_tests/8o.pspnc
-  Troullier-Martins psp for element  O         Thu Oct 27 17:29:57 EDT 1994
-  8.00000   6.00000    940714                znucl, zion, pspdat
    1    1    1    1      2001   0.00000      pspcod,pspxc,lmax,lloc,mmax,r2well
    0   5.480  16.893    1   1.4482335        l,e99.0,e99.9,nproj,rcpsp
   0.00000000   0.00000000   0.00000000   0.00000000     rms, ekb1, ekb2, epsatm
    1  20.911  28.075    0   1.4482335        l,e99.0,e99.9,nproj,rcpsp
   0.00000000   0.00000000   0.00000000   0.00000000     rms, ekb1, ekb2, epsatm
    0.56990156784787    3.95561236318184    0.63894027514378   rchrg,fchrg,qchrg
  pspatm : epsatm=    1.57752239
         --- l  ekb(1:nproj) -->
             0    5.670783
 pspatm: atomic psp has been read  and splines computed

- pspini: atom type   3  psp file is ../../../Psps_for_tests/Pd.psp8
- pspatm: opening atomic psp file    ../../../Psps_for_tests/Pd.psp8
- Pd    ONCVPSP-3.2.3.1  r_core=   1.41052   1.46191   1.55175
- 46.00000  18.00000    170510                znucl, zion, pspdat
    8   11    2    4       600   0.00000      pspcod,pspxc,lmax,lloc,mmax,r2well
    5.99000000000000    7.00000000000000    0.00000000000000   rchrg,fchrg,qchrg
     nproj     2     2     2
     extension_switch     1
  pspatm : epsatm=   26.09224486
         --- l  ekb(1:nproj) -->
             0    7.845850   -2.282160
             1    3.261104   -0.686948
             2   -1.134855   -0.401224
 pspatm: atomic psp has been read  and splines computed

   2.53789264E+04                                ecore*ucvol(ha*bohr**3)
--------------------------------------------------------------------------------

_setup2: Arith. and geom. avg. npw (full set) are    2036.750    2036.679

================================================================================

     iter   Etot(hartree)      deltaE(h)  residm     vres2
 ETOT  1  -549.38329695429    -5.494E+02 8.148E-02 7.554E+05
 ETOT  2  -476.57344367258     7.281E+01 1.850E-01 4.011E+06
 ETOT  3  -563.88439830332    -8.731E+01 2.285E-01 7.707E+05
 ETOT  4  -587.88872344324    -2.400E+01 1.041E-01 6.968E+03
 ETOT  5  -587.92423943838    -3.552E-02 3.407E-02 3.980E+04
 ETOT  6  -587.48843323247     4.358E-01 2.832E-02 4.860E+04
 ETOT  7  -588.53412502720    -1.046E+00 1.012E-02 2.097E+04
 ETOT  8  -589.04471001496    -5.106E-01 3.050E-03 5.932E+03
 ETOT  9  -589.16091118138    -1.162E-01 9.837E-03 2.132E+03
 ETOT 10  -589.19270323573    -3.179E-02 2.260E-03 1.409E+03
 ETOT 11  -589.21111673407    -1.841E-02 1.658E-03 8.678E+02
 ETOT 12  -589.23278295692    -2.167E-02 2.668E-04 1.446E+02
 ETOT 13  -589.23524052617    -2.458E-03 4.459E-04 5.348E+01
 ETOT 14  -589.23705764944    -1.817E-03 2.430E-04 7.238E+00
 ETOT 15  -589.23715233806    -9.469E-05 4.898E-04 3.674E+00
 ETOT 16  -589.23722766748    -7.533E-05 2.763E-04 2.302E+00

 At SCF step   16, etot is converged : 
  for the second time, diff in etot=  7.533E-05 < toldfe=  1.000E-04

 Cartesian components of stress tensor (hartree/bohr^3)
  sigma(1 1)=  1.79457868E-02  sigma(3 2)= -4.54228050E-05
  sigma(2 2)=  1.59514258E-02  sigma(3 1)=  1.87516241E-04
  sigma(3 3)=  1.76929672E-02  sigma(2 1)=  2.29493713E-04

 Integrated electronic density in atomic spheres:
 ------------------------------------------------
 Atom  Sphere_radius  Integrated_density
    1        2.00000          0.59995934
    2        2.00000          0.75611067
    3        2.00000          5.98016769
    4        2.00000          5.59848779
    5        2.00000          5.48502829
    6        2.00000          5.96786392
    7        2.00000         14.91786754
    8        2.00000         15.07641633
    9        2.00000         15.07619315
   10        2.00000         14.77367267
================================================================================

 ----iterations are completed or convergence reached----

 Mean square residual over all n,k,spin=   4.6580E-07; max=  2.7635E-04
 reduced coordinates (array xred) for   10 atoms
       0.000000000000      0.000000000000      0.000000000000
       0.500000000000      0.322044051240      0.173616000000
       8.680801308635      0.000000000000      0.107640000000
       0.690005529444      0.000000000000      0.239592000000
       0.190005529444      0.322044051240      0.281256000000
       0.809994470556      0.322044051240      0.065976000000
       0.190005529444      0.000000000000      0.567232000000
       0.423486314625      0.299453967376      0.671212000000
       0.423486314625     -0.299453967376      0.671212000000
       0.000000000000      0.000000000000      0.775188000000
 rms dE/dt=  1.9254E+00; max dE/dt=  5.9040E+00; dE/dt below (all hartree)
    1      -1.077202738310      0.859213028641      4.088658449496
    2       1.358758809301     -1.835322769300     -1.897003969171
    3       0.278456818535      1.849385371170     -0.621433779730
    4      -0.533876253672      1.009436739368     -1.198338195334
    5       0.288853375081     -0.101126871085     -0.382114958926
    6      -0.340929220599     -1.764741158235      1.384739482636
    7       0.246680490189     -0.008905461940      0.541852623466
    8      -0.263181282817      5.904028978526     -0.797985172903
    9      -0.255629065194     -5.914859253157     -0.784044637553
   10       0.282238627950      0.010625002126     -0.326159670902

 cartesian coordinates (angstrom) at end:
    1      0.00000000000000     0.00000000000000     0.00000000000000
    2      2.29684075616404     1.47936780433420     2.29684075616404
    3     39.87683648367062     0.00000000000000     1.42401586831569
    4      3.16966564401238     0.00000000000000     3.16966564401238
    5      0.87282488784835     1.47936780433420     3.72085662447973
    6      3.72085662447973     1.47936780433420     0.87282488784835
    7      0.87282488784835     0.00000000000000     7.50415615957307
    8      1.94536125421856     1.37559615372970     8.87975231330278
    9      1.94536125421856    -1.37559615372970     8.87975231330278
   10      0.00000000000000     0.00000000000000    10.25529554931162

 cartesian forces (hartree/bohr) at end:
    1      0.12390789954337    -0.09888946502970    -0.16351365729554
    2     -0.15670696862674     0.21151231797893     0.07591283945116
    3     -0.03225968372598    -0.21295410682875     0.02489003187353
    4      0.06131845103194    -0.11619474918861     0.04796620849768
    5     -0.03345733331425     0.01173857613315     0.01531727904137
    6      0.03909157873069     0.20338154534679    -0.05535689862113
    7     -0.02859915378110     0.00111496896040    -0.02164142425433
    8      0.03013526850794    -0.68003589737292     0.03195208760043
    9      0.02926527753672     0.68146168714504     0.03139446618643
   10     -0.03269533590260    -0.00113487714434     0.01307906752041
 frms,max,avg= 1.9782864E-01 6.8146169E-01   1.824E-04 -8.909E-05 -3.268E-05 h/b

 cartesian forces (eV/Angstrom) at end:
    1      6.37159984033478    -5.08510031980235    -8.40820961824284
    2     -8.05819564338608    10.87639978104642     3.90359482735858
    3     -1.65885949511842   -10.95053953839153     1.27989679185720
    4      3.15312126381364    -5.97497373538118     2.46652140445906
    5     -1.72044510792856     0.60362180370533     0.78764609079821
    6      2.01016963177339    10.45829867695510    -2.84656593902141
    7     -1.47062749297575     0.05733400433890    -1.11284668557602
    8      1.54961768153013   -34.96884888769164     1.64304226771259
    9      1.50488095083131    35.04216593945245     1.61436822412483
   10     -1.68126162887444    -0.05835772423150     0.67255263652981
 frms,max,avg= 1.0172757E+01 3.5042166E+01   9.377E-03 -4.581E-03 -1.681E-03 e/A
 length scales=  8.680800000000  8.680800000000 25.000000000000 bohr
              =  4.593681512328  4.593681512328 13.229430214750 angstroms
 prteigrs : about to open file sim4geom_o_EIG
 Fermi (or HOMO) energy (hartree) =   0.06122   Average Vxc (hartree)=  -0.31515
 Eigenvalues (hartree) for nkpt=  16  k points:
 kpt#   1, nband= 54, wtk=  0.06250, kpt= -0.1250  0.0000  0.0000 (reduced coord)
  -3.77448   -3.74533   -3.69934   -3.66296   -2.48103   -2.34994   -2.34448   -2.33679
  -2.33217   -2.32739   -2.30784   -2.30580   -2.28732   -2.25846   -2.25563   -2.24856
  -1.09187   -0.96170   -0.89096   -0.83675   -0.34966   -0.29044   -0.27785   -0.27717
  -0.26502   -0.23022   -0.17470   -0.17329   -0.17097   -0.14465   -0.12851   -0.10966
  -0.09143   -0.08457   -0.07031   -0.05730   -0.05467   -0.05136   -0.04871   -0.04220
  -0.02125   -0.01533   -0.00473   -0.00186    0.00601    0.00985    0.01272    0.01833
   0.02206    0.02948    0.04105    0.06122    0.07578    0.08348
 prteigrs : prtvol=0 or 1, do not print more k-points.


--------------------------------------------------------------------------------
 Components of total free energy (in Hartree) :

    Kinetic energy  =  1.82001502170028E+02
    Hartree energy  =  3.83115446412019E+02
    XC energy       = -9.70842548539740E+01
    Ewald energy    = -1.06492668374092E+02
    PspCore energy  =  1.34714311915399E+01
    Loc. psp. energy= -9.89932673804604E+02
    NL   psp  energy=  2.56839895916052E+01
    >>>>>>>>> Etotal= -5.89237227667478E+02

 Other information on the energy :
    Total energy(eV)= -1.60339603866620E+04 ; Band energy (Ha)=  -9.8865451361E+01
--------------------------------------------------------------------------------

 Cartesian components of stress tensor (hartree/bohr^3)
  sigma(1 1)=  1.79457868E-02  sigma(3 2)= -4.54228050E-05
  sigma(2 2)=  1.59514258E-02  sigma(3 1)=  1.87516241E-04
  sigma(3 3)=  1.76929672E-02  sigma(2 1)=  2.29493713E-04

-Cartesian components of stress tensor (GPa)         [Pressure= -5.0595E+02 GPa]
- sigma(1 1)=  5.27983188E+02  sigma(3 2)= -1.33638484E+00
- sigma(2 2)=  4.69307072E+02  sigma(3 1)=  5.51691734E+00
- sigma(3 3)=  5.20544979E+02  sigma(2 1)=  6.75193700E+00

== END DATASET(S) ==============================================================
================================================================================
  
 -outvars: echo values of variables after computation  --------
            acell      8.6808000000E+00  8.6808000000E+00  2.5000000000E+01 Bohr
              amu      4.78800000E+01  1.59994000E+01  1.06420000E+02
           diemac      1.20000000E+01
             ecut      8.00000000E+00 Hartree
           etotal     -5.8923722767E+02
            fcart      1.2390789954E-01 -9.8889465030E-02 -1.6351365730E-01
                      -1.5670696863E-01  2.1151231798E-01  7.5912839451E-02
                      -3.2259683726E-02 -2.1295410683E-01  2.4890031874E-02
                       6.1318451032E-02 -1.1619474919E-01  4.7966208498E-02
                      -3.3457333314E-02  1.1738576133E-02  1.5317279041E-02
                       3.9091578731E-02  2.0338154535E-01 -5.5356898621E-02
                      -2.8599153781E-02  1.1149689604E-03 -2.1641424254E-02
                       3.0135268508E-02 -6.8003589737E-01  3.1952087600E-02
                       2.9265277537E-02  6.8146168715E-01  3.1394466186E-02
                      -3.2695335903E-02 -1.1348771443E-03  1.3079067520E-02
-          fftalg         112
           istwfk        0    0    0    0    0    7    0    0    5    0
                         0    0    0    6    0    4
              kpt     -1.25000000E-01  0.00000000E+00  0.00000000E+00
                      -2.50000000E-01  5.00000000E-01  0.00000000E+00
                      -1.25000000E-01  5.00000000E-01  5.00000000E-01
                      -3.75000000E-01  0.00000000E+00  0.00000000E+00
                      -2.50000000E-01  0.00000000E+00  5.00000000E-01
                       5.00000000E-01  5.00000000E-01  0.00000000E+00
                      -3.75000000E-01  5.00000000E-01  5.00000000E-01
                       3.75000000E-01  0.00000000E+00  0.00000000E+00
                       5.00000000E-01  0.00000000E+00  5.00000000E-01
                       2.50000000E-01  5.00000000E-01  0.00000000E+00
                       3.75000000E-01  5.00000000E-01  5.00000000E-01
                       1.25000000E-01  0.00000000E+00  0.00000000E+00
                       2.50000000E-01  0.00000000E+00  5.00000000E-01
                       0.00000000E+00  5.00000000E-01  0.00000000E+00
                       1.25000000E-01  5.00000000E-01  5.00000000E-01
                       0.00000000E+00  0.00000000E+00  5.00000000E-01
           kptopt           3
         kptrlatt        4   -1    1      0    2    0     -4   -1    1
          kptrlen      1.73616000E+01
P           mkmem          16
            natom          10
            nband          54
            ngfft          30      30     200
             nkpt          16
            nstep          20
             nsym           1
           ntypat           3
              occ      2.000000  2.000000  2.000000  2.000000  2.000000  2.000000
                       2.000000  2.000000  2.000000  2.000000  2.000000  2.000000
                       2.000000  2.000000  2.000000  2.000000  2.000000  2.000000
                       2.000000  2.000000  2.000000  2.000000  2.000000  2.000000
                       2.000000  2.000000  2.000000  2.000000  2.000000  2.000000
                       2.000000  2.000000  2.000000  2.000000  2.000000  2.000000
                       2.000000  2.000000  2.000000  2.000000  2.000000  2.000000
                       2.000000  2.000000  2.000000  2.000000  2.000000  2.000000
                       2.000000  2.000000  2.000000  2.000000  0.000000  0.000000
           shiftk      5.00000000E-01  0.00000000E+00  5.00000000E-01
          spgroup           1
           strten      1.7945786831E-02  1.5951425833E-02  1.7692967183E-02
                      -4.5422805016E-05  1.8751624052E-04  2.2949371264E-04
           toldfe      1.00000000E-04 Hartree
            typat      1  1  2  2  2  2  3  3  3  3
              wtk        0.06250    0.06250    0.06250    0.06250    0.06250    0.06250
                         0.06250    0.06250    0.06250    0.06250    0.06250    0.06250
                         0.06250    0.06250    0.06250    0.06250
           xangst      0.0000000000E+00  0.0000000000E+00  0.0000000000E+00
                       2.2968407562E+00  1.4793678043E+00  2.2968407562E+00
                       3.9876836484E+01  0.0000000000E+00  1.4240158683E+00
                       3.1696656440E+00  0.0000000000E+00  3.1696656440E+00
                       8.7282488785E-01  1.4793678043E+00  3.7208566245E+00
                       3.7208566245E+00  1.4793678043E+00  8.7282488785E-01
                       8.7282488785E-01  0.0000000000E+00  7.5041561596E+00
                       1.9453612542E+00  1.3755961537E+00  8.8797523133E+00
                       1.9453612542E+00 -1.3755961537E+00  8.8797523133E+00
                       0.0000000000E+00  0.0000000000E+00  1.0255295549E+01
            xcart      0.0000000000E+00  0.0000000000E+00  0.0000000000E+00
                       4.3404000000E+00  2.7956000000E+00  4.3404000000E+00
                       7.5356300000E+01  0.0000000000E+00  2.6910000000E+00
                       5.9898000000E+00  0.0000000000E+00  5.9898000000E+00
                       1.6494000000E+00  2.7956000000E+00  7.0314000000E+00
                       7.0314000000E+00  2.7956000000E+00  1.6494000000E+00
                       1.6494000000E+00  0.0000000000E+00  1.4180800000E+01
                       3.6762000000E+00  2.5995000000E+00  1.6780300000E+01
                       3.6762000000E+00 -2.5995000000E+00  1.6780300000E+01
                       0.0000000000E+00  0.0000000000E+00  1.9379700000E+01
             xred      0.0000000000E+00  0.0000000000E+00  0.0000000000E+00
                       5.0000000000E-01  3.2204405124E-01  1.7361600000E-01
                       8.6808013086E+00  0.0000000000E+00  1.0764000000E-01
                       6.9000552944E-01  0.0000000000E+00  2.3959200000E-01
                       1.9000552944E-01  3.2204405124E-01  2.8125600000E-01
                       8.0999447056E-01  3.2204405124E-01  6.5976000000E-02
                       1.9000552944E-01  0.0000000000E+00  5.6723200000E-01
                       4.2348631463E-01  2.9945396738E-01  6.7121200000E-01
                       4.2348631463E-01 -2.9945396738E-01  6.7121200000E-01
                       0.0000000000E+00  0.0000000000E+00  7.7518800000E-01
            znucl       22.00000    8.00000   46.00000

================================================================================

- Total cpu        time (s,m,h):        346.6        5.78      0.096
- Total wall clock time (s,m,h):        349.0        5.82      0.097
-
- For major independent code sections, cpu and wall times (sec),
-  as well as % of the time and number of calls for node 0-
-<BEGIN_TIMER mpi_nprocs = 1, omp_nthreads = 1, mpi_rank = 0>
- cpu_time =          346.6, wall_time =          349.0
-
- routine                        cpu     %       wall     %      number of calls  Gflops    Speedup Efficacity
-                                                                  (-1=no count)
- fourwf%(pot)                 222.719  64.3    221.856  63.6          74879      -1.00        1.00       1.00
- projbd                        38.078  11.0     39.251  11.2         118654      -1.00        0.97       0.97
- nonlop(apply)                 34.938  10.1     34.885  10.0          74879      -1.00        1.00       1.00
- fourwf%(den)                  23.391   6.7     23.451   6.7          13312      -1.00        1.00       1.00
- vtowfk(ssdiag)                11.453   3.3     12.149   3.5             -1      -1.00        0.94       0.94
- others (108)                   5.641   1.6      6.447   1.8             -1      -1.00        0.87       0.87
-<END_TIMER>
-
- subtotal                     336.219  97.0    338.039  96.9                                  0.99       0.99

- For major independent code sections, cpu and wall times (sec),
- as well as % of the total time and number of calls 

-<BEGIN_TIMER mpi_nprocs = 1, omp_nthreads = 1, mpi_rank = world>
- cpu_time =         346.6, wall_time =         349.0
-
- routine                         cpu     %       wall     %      number of calls Gflops    Speedup Efficacity
-                                                                  (-1=no count)
- fourwf%(pot)                 222.719  64.3    221.856  63.6          74879      -1.00        1.00       1.00
- projbd                        38.078  11.0     39.251  11.2         118654      -1.00        0.97       0.97
- nonlop(apply)                 34.938  10.1     34.885  10.0          74879      -1.00        1.00       1.00
- fourwf%(den)                  23.391   6.7     23.451   6.7          13312      -1.00        1.00       1.00
- vtowfk(ssdiag)                11.453   3.3     12.149   3.5             -1      -1.00        0.94       0.94
- others (108)                   5.641   1.6      6.447   1.8             -1      -1.00        0.87       0.87
-<END_TIMER>

- subtotal                     336.219  97.0    338.039  96.9                                  0.99       0.99

================================================================================

 Suggested references for the acknowledgment of ABINIT usage.

 The users of ABINIT have little formal obligations with respect to the ABINIT group
 (those specified in the GNU General Public License, http://www.gnu.org/copyleft/gpl.txt).
 However, it is common practice in the scientific literature,
 to acknowledge the efforts of people that have made the research possible.
 In this spirit, please find below suggested citations of work written by ABINIT developers,
 corresponding to implementations inside of ABINIT that you have used in the present run.
 Note also that it will be of great value to readers of publications presenting these results,
 to read papers enabling them to understand the theoretical formalism and details
 of the ABINIT implementation.
 For information on why they are suggested, see also https://www.abinit.org/about/?text=acknowledgments.
-
- [1] Recent developments in the ABINIT software package.
- Computer Phys. Comm. 205, 106 (2016).
- X.Gonze, F.Jollet, F.Abreu Araujo, D.Adams, B.Amadon, T.Applencourt,
- C.Audouze, J.-M.Beuken, J.Bieder, A.Bokhanchuk, E.Bousquet, F.Bruneval
- D.Caliste, M.Cote, F.Dahm, F.Da Pieve, M.Delaveau, M.Di Gennaro,
- B.Dorado, C.Espejo, G.Geneste, L.Genovese, A.Gerossier, M.Giantomassi,
- Y.Gillet, D.R.Hamann, L.He, G.Jomard, J.Laflamme Janssen, S.Le Roux,
- A.Levitt, A.Lherbier, F.Liu, I.Lukacevic, A.Martin, C.Martins,
- M.J.T.Oliveira, S.Ponce, Y.Pouillon, T.Rangel, G.-M.Rignanese,
- A.H.Romero, B.Rousseau, O.Rubel, A.A.Shukri, M.Stankovski, M.Torrent,
- M.J.Van Setten, B.Van Troeye, M.J.Verstraete, D.Waroquier, J.Wiktor,
- B.Xue, A.Zhou, J.W.Zwanziger.
- Comment : the fourth generic paper describing the ABINIT project.
- Note that a version of this paper, that is not formatted for Computer Phys. Comm. 
- is available at https://www.abinit.org/about/ABINIT16.pdf .
- The licence allows the authors to put it on the Web.
-
- [2] Optimized norm-conserving Vanderbilt pseudopotentials.
- D.R. Hamann, Phys. Rev. B 88, 085117 (2013).
- Comment: Some pseudopotential generated using the ONCVPSP code were used.
-
- [3] ABINIT : First-principles approach of materials and nanosystem properties.
- Computer Phys. Comm. 180, 2582-2615 (2009).
- X. Gonze, B. Amadon, P.-M. Anglade, J.-M. Beuken, F. Bottin, P. Boulanger, F. Bruneval,
- D. Caliste, R. Caracas, M. Cote, T. Deutsch, L. Genovese, Ph. Ghosez, M. Giantomassi
- S. Goedecker, D.R. Hamann, P. Hermet, F. Jollet, G. Jomard, S. Leroux, M. Mancini, S. Mazevet,
- M.J.T. Oliveira, G. Onida, Y. Pouillon, T. Rangel, G.-M. Rignanese, D. Sangalli, R. Shaltaf,
- M. Torrent, M.J. Verstraete, G. Zerah, J.W. Zwanziger
- Comment : the third generic paper describing the ABINIT project.
- Note that a version of this paper, that is not formatted for Computer Phys. Comm. 
- is available at https://www.abinit.org/about/ABINIT_CPC_v10.pdf .
- The licence allows the authors to put it on the Web.
-
- [4] A brief introduction to the ABINIT software package.
- Z. Kristallogr. 220, 558-562 (2005).
- X. Gonze, G.-M. Rignanese, M. Verstraete, J.-M. Beuken, Y. Pouillon, R. Caracas, F. Jollet,
- M. Torrent, G. Zerah, M. Mikami, Ph. Ghosez, M. Veithen, J.-Y. Raty, V. Olevano, F. Bruneval,
- L. Reining, R. Godby, G. Onida, D.R. Hamann, and D.C. Allan.
- Comment : the second generic paper describing the ABINIT project. Note that this paper
- should be cited especially if you are using the GW part of ABINIT, as several authors
- of this part are not in the list of authors of the first or third paper.
- The .pdf of the latter paper is available at https://www.abinit.org/about/zfk_0505-06_558-562.pdf.
- Note that it should not redistributed (Copyright by Oldenburg Wissenshaftverlag,
- the licence allows the authors to put it on the Web).
-
- And optionally:
-
- [5] First-principles computation of material properties : the ABINIT software project. 
- X. Gonze, J.-M. Beuken, R. Caracas, F. Detraux, M. Fuchs, G.-M. Rignanese, L. Sindic,
- M. Verstraete, G. Zerah, F. Jollet, M. Torrent, A. Roy, M. Mikami, Ph. Ghosez, J.-Y. Raty, D.C. Allan.
- Computational Materials Science 25, 478-492 (2002). http://dx.doi.org/10.1016/S0927-0256(02)00325-7
- Comment : the original paper describing the ABINIT project.
-
- Proc.   0 individual time (sec): cpu=        346.6  wall=        349.0

================================================================================

 Calculation completed.
.Delivered   2 WARNINGs and   4 COMMENTs to log file.
+Overall time at end (sec) : cpu=        346.6  wall=        349.0
