
.Version 8.6.3 of ABINIT 
.(sequential version, prepared for a x86_64_linux_gnu5.4 computer) 

.Copyright (C) 1998-2017 ABINIT group . 
 ABINIT comes with ABSOLUTELY NO WARRANTY.
 It is free software, and you are welcome to redistribute it
 under certain conditions (GNU General Public License,
 see ~abinit/COPYING or http://www.gnu.org/copyleft/gpl.txt).

 ABINIT is a project of the Universite Catholique de Louvain,
 Corning Inc. and other collaborators, see ~abinit/doc/developers/contributors.txt .
 Please read ~abinit/doc/users/acknowledgments.html for suggested
 acknowledgments of the ABINIT effort.
 For more information, see https://www.abinit.org .

.Starting date : Sat 21 Apr 2018.
- ( at 11h02 )
  
- input  file    -> RutileBase.in
- output file    -> RutileBase.out
- root for input  files -> RutileBase_i
- root for output files -> RutileBase_o


 Symmetries : space group P-4 2_1 m (#113); Bravais tP (primitive tetrag.)
================================================================================
 Values of the parameters that define the memory need of the present run
     intxc =       0    ionmov =       0      iscf =       7    lmnmax =       2
     lnmax =       2     mgfft =      24  mpssoang =       3    mqgrid =    3001
     natom =       6  nloc_mem =       1    nspden =       1   nspinor =       1
    nsppol =       1      nsym =       8    n1xccc =    2501    ntypat =       2
    occopt =       1   xclevel =       1
-    mband =          17        mffmem =           1         mkmem =           8
       mpw =         471          nfft =        9216          nkpt =           8
================================================================================
P This job should need less than                       4.561 Mbytes of memory.
  Rough estimation (10% accuracy) of disk space for files :
_ WF disk file :      0.979 Mbytes ; DEN or POT disk file :      0.072 Mbytes.
================================================================================

--------------------------------------------------------------------------------
------------- Echo of variables that govern the present computation ------------
--------------------------------------------------------------------------------
-
- outvars: echo of selected default values                                      
-   iomode0 =  0 , fftalg0 =112 , wfoptalg0 =  0
-
- outvars: echo of global parameters not present in the input file              
-  max_nthreads =    0
-
 -outvars: echo values of preprocessed input variables --------
            acell      8.6808000000E+00  8.6808000000E+00  5.5911000000E+00 Bohr
              amu      4.78800000E+01  1.59994000E+01
           diemac      1.20000000E+01
             ecut      8.00000000E+00 Hartree
-          fftalg         112
           getwfk          -1
              kpt      0.00000000E+00  2.50000000E-01  0.00000000E+00
                       2.50000000E-01  5.00000000E-01  0.00000000E+00
                       0.00000000E+00  0.00000000E+00  2.50000000E-01
                       0.00000000E+00  5.00000000E-01  2.50000000E-01
                       2.50000000E-01  2.50000000E-01  2.50000000E-01
                       5.00000000E-01  5.00000000E-01  2.50000000E-01
                       0.00000000E+00  2.50000000E-01  5.00000000E-01
                       2.50000000E-01  5.00000000E-01  5.00000000E-01
         kptrlatt        2   -2   -2      2    2   -2      0    0    4
          kptrlen      2.23644000E+01
P           mkmem           8
            natom           6
            nband          17
            ngfft          24      24      16
             nkpt           8
            nstep          10
             nsym           8
           ntypat           2
              occ      2.000000  2.000000  2.000000  2.000000  2.000000  2.000000
                       2.000000  2.000000  2.000000  2.000000  2.000000  2.000000
                       2.000000  2.000000  2.000000  2.000000  0.000000
           shiftk     -5.00000000E-01 -5.00000000E-01  1.00000000E+00
          spgroup         113
           symrel      1  0  0   0  1  0   0  0  1      -1  0  0   0  1  0   0  0 -1
                      -1  0  0   0 -1  0   0  0  1       1  0  0   0 -1  0   0  0 -1
                       0  1  0   1  0  0   0  0  1       0 -1  0   1  0  0   0  0 -1
                       0 -1  0  -1  0  0   0  0  1       0  1  0  -1  0  0   0  0 -1
            tnons      0.0000000  0.0000000  0.0000000     0.5000000  0.5000000 -0.4999911
                       0.0000000  0.0000000  0.0000000     0.5000000  0.5000000 -0.4999911
                       0.0000000  0.0000000  0.0000000     0.5000000  0.5000000 -0.4999911
                       0.0000000  0.0000000  0.0000000     0.5000000  0.5000000 -0.4999911
           toldfe      1.00000000E-06 Hartree
            typat      1  1  2  2  2  2
              wtk        0.12500    0.12500    0.06250    0.12500    0.25000    0.06250
                         0.12500    0.12500
           xangst      0.0000000000E+00  0.0000000000E+00  0.0000000000E+00
                       2.2968407562E+00  2.2968407562E+00  1.4793678043E+00
                       1.4240158683E+00  1.4240158683E+00  0.0000000000E+00
                       3.1696656440E+00  3.1696656440E+00  0.0000000000E+00
                       8.7282488785E-01  3.7208566245E+00  1.4793678043E+00
                       3.7208566245E+00  8.7282488785E-01  1.4793678043E+00
            xcart      0.0000000000E+00  0.0000000000E+00  0.0000000000E+00
                       4.3404000000E+00  4.3404000000E+00  2.7956000000E+00
                       2.6910000000E+00  2.6910000000E+00  0.0000000000E+00
                       5.9898000000E+00  5.9898000000E+00  0.0000000000E+00
                       1.6494000000E+00  7.0314000000E+00  2.7956000000E+00
                       7.0314000000E+00  1.6494000000E+00  2.7956000000E+00
             xred      0.0000000000E+00  0.0000000000E+00  0.0000000000E+00
                       5.0000000000E-01  5.0000000000E-01  5.0000894278E-01
                       3.0999447056E-01  3.0999447056E-01  0.0000000000E+00
                       6.9000552944E-01  6.9000552944E-01  0.0000000000E+00
                       1.9000552944E-01  8.0999447056E-01  5.0000894278E-01
                       8.0999447056E-01  1.9000552944E-01  5.0000894278E-01
            znucl       22.00000    8.00000

================================================================================

 chkinp: Checking input parameters for consistency.

 chkinp: WARNING -
   Chksymbreak=1 . Found potentially symmetry-breaking value of tnons, 
   which is neither a rational fraction in 1/8th nor in 1/12th :
   for the symmetry number    2
   symrel is  -1  0  0  0  1  0  0  0 -1
   tnons is     5.000000E-01    5.000000E-01   -4.999911E-01
   Please, read the description of the input variable chksymbreak,
   then, if you feel confident, you might switch it to zero, or consult with the forum.

 chkinp: WARNING -
   Chksymbreak=1 . Found potentially symmetry-breaking value of tnons, 
   which is neither a rational fraction in 1/8th nor in 1/12th :
   for the symmetry number    4
   symrel is   1  0  0  0 -1  0  0  0 -1
   tnons is     5.000000E-01    5.000000E-01   -4.999911E-01
   Please, read the description of the input variable chksymbreak,
   then, if you feel confident, you might switch it to zero, or consult with the forum.

 chkinp: WARNING -
   Chksymbreak=1 . Found potentially symmetry-breaking value of tnons, 
   which is neither a rational fraction in 1/8th nor in 1/12th :
   for the symmetry number    6
   symrel is   0 -1  0  1  0  0  0  0 -1
   tnons is     5.000000E-01    5.000000E-01   -4.999911E-01
   Please, read the description of the input variable chksymbreak,
   then, if you feel confident, you might switch it to zero, or consult with the forum.

 chkinp: WARNING -
   Chksymbreak=1 . Found potentially symmetry-breaking value of tnons, 
   which is neither a rational fraction in 1/8th nor in 1/12th :
   for the symmetry number    8
   symrel is   0  1  0 -1  0  0  0  0 -1
   tnons is     5.000000E-01    5.000000E-01   -4.999911E-01
   Please, read the description of the input variable chksymbreak,
   then, if you feel confident, you might switch it to zero, or consult with the forum.

================================================================================
== DATASET  1 ==================================================================
-   nproc =    1

 Exchange-correlation functional for the present dataset will be:
  LDA: new Teter (4/93) with spin-polarized option - ixc=1
 Citation for XC functional:
  S. Goedecker, M. Teter, J. Huetter, PRB 54, 1703 (1996)

 Real(R)+Recip(G) space primitive vectors, cartesian coordinates (Bohr,Bohr^-1):
 R(1)=  8.6808000  0.0000000  0.0000000  G(1)=  0.1151968  0.0000000  0.0000000
 R(2)=  0.0000000  8.6808000  0.0000000  G(2)=  0.0000000  0.1151968  0.0000000
 R(3)=  0.0000000  0.0000000  5.5911000  G(3)=  0.0000000  0.0000000  0.1788557
 Unit cell volume ucvol=  4.2132455E+02 bohr^3
 Angles (23,13,12)=  9.00000000E+01  9.00000000E+01  9.00000000E+01 degrees

 getcut: wavevector=  0.0000  0.0000  0.0000  ngfft=  24  24  16
         ecut(hartree)=      8.000   => boxcut(ratio)=   2.17141

--- Pseudopotential description ------------------------------------------------
- pspini: atom type   1  psp file is ../../../Psps_for_tests/22ti.pspnc
- pspatm: opening atomic psp file    ../../../Psps_for_tests/22ti.pspnc
-  Troullier-Martins psp for element  Ti        Thu Oct 27 17:33:40 EDT 1994
- 22.00000   4.00000    940714                znucl, zion, pspdat
    1    1    2    0      2001   0.00000      pspcod,pspxc,lmax,lloc,mmax,r2well
    0   5.166   8.509    0   2.4203472        l,e99.0,e99.9,nproj,rcpsp
   0.00000000   0.00000000   0.00000000   0.00000000     rms, ekb1, ekb2, epsatm
    1   2.285   3.944    1   2.9934301        l,e99.0,e99.9,nproj,rcpsp
   0.00000000   0.00000000   0.00000000   0.00000000     rms, ekb1, ekb2, epsatm
    2  20.947  27.069    1   1.9326638        l,e99.0,e99.9,nproj,rcpsp
   0.00000000   0.00000000   0.00000000   0.00000000     rms, ekb1, ekb2, epsatm
    2.82741504495369    0.09256629068341    1.82586447305099   rchrg,fchrg,qchrg
  pspatm : epsatm=   66.67453488
         --- l  ekb(1:nproj) -->
             1    0.915537
             2   -8.015692
 pspatm: atomic psp has been read  and splines computed

- pspini: atom type   2  psp file is ../../../Psps_for_tests/8o.pspnc
- pspatm: opening atomic psp file    ../../../Psps_for_tests/8o.pspnc
-  Troullier-Martins psp for element  O         Thu Oct 27 17:29:57 EDT 1994
-  8.00000   6.00000    940714                znucl, zion, pspdat
    1    1    1    1      2001   0.00000      pspcod,pspxc,lmax,lloc,mmax,r2well
    0   5.480  16.893    1   1.4482335        l,e99.0,e99.9,nproj,rcpsp
   0.00000000   0.00000000   0.00000000   0.00000000     rms, ekb1, ekb2, epsatm
    1  20.911  28.075    0   1.4482335        l,e99.0,e99.9,nproj,rcpsp
   0.00000000   0.00000000   0.00000000   0.00000000     rms, ekb1, ekb2, epsatm
    0.56990156784787    3.95561236318184    0.63894027514378   rchrg,fchrg,qchrg
  pspatm : epsatm=    1.57752239
         --- l  ekb(1:nproj) -->
             0    5.670783
 pspatm: atomic psp has been read  and splines computed

   4.46909310E+03                                ecore*ucvol(ha*bohr**3)
--------------------------------------------------------------------------------

_setup2: Arith. and geom. avg. npw (full set) are     456.563     456.483

================================================================================

     iter   Etot(hartree)      deltaE(h)  residm     vres2
 ETOT  1  -68.170795852019    -6.817E+01 5.280E-02 1.618E+02
 ETOT  2  -68.505057441681    -3.343E-01 2.741E-03 5.380E+01
 ETOT  3  -68.652467723668    -1.474E-01 2.215E-03 3.261E-01
 ETOT  4  -68.652821635764    -3.539E-04 1.988E-04 1.904E-03
 ETOT  5  -68.652823652209    -2.016E-06 4.441E-05 8.171E-05
 ETOT  6  -68.652823820856    -1.686E-07 2.851E-05 8.761E-07
 ETOT  7  -68.652823822075    -1.219E-09 7.960E-06 1.639E-08

 At SCF step    7, etot is converged : 
  for the second time, diff in etot=  1.219E-09 < toldfe=  1.000E-06

 Cartesian components of stress tensor (hartree/bohr^3)
  sigma(1 1)=  6.86785060E-03  sigma(3 2)=  0.00000000E+00
  sigma(2 2)=  6.86785060E-03  sigma(3 1)=  0.00000000E+00
  sigma(3 3)=  3.50421716E-03  sigma(2 1)=  0.00000000E+00

 Integrated electronic density in atomic spheres:
 ------------------------------------------------
 Atom  Sphere_radius  Integrated_density
    1        2.00000          0.92836808
    2        2.00000          0.92836808
    3        2.00000          6.20221451
    4        2.00000          6.20221451
    5        2.00000          6.20221451
    6        2.00000          6.20221451
================================================================================

 ----iterations are completed or convergence reached----

 Mean square residual over all n,k,spin=   1.3364E-07; max=  7.9602E-06
 reduced coordinates (array xred) for    6 atoms
       0.000000000000      0.000000000000      0.000000000000
       0.500000000000      0.500000000000      0.500008942784
       0.309994470556      0.309994470556      0.000000000000
       0.690005529444      0.690005529444      0.000000000000
       0.190005529444      0.809994470556      0.500008942784
       0.809994470556      0.190005529444      0.500008942784
 rms dE/dt=  4.9094E-01; max dE/dt=  7.3642E-01; dE/dt below (all hartree)
    1       0.000000000000      0.000000000000     -0.000293957946
    2       0.000000000000      0.000000000000      0.000293957946
    3       0.736417404641      0.736417404641     -0.000252104839
    4      -0.736417404641     -0.736417404641     -0.000252104839
    5      -0.736417404641      0.736417404641      0.000252104839
    6       0.736417404641     -0.736417404641      0.000252104839

 cartesian coordinates (angstrom) at end:
    1      0.00000000000000     0.00000000000000     0.00000000000000
    2      2.29684075616404     2.29684075616404     1.47936780433420
    3      1.42401586831569     1.42401586831569     0.00000000000000
    4      3.16966564401238     3.16966564401238     0.00000000000000
    5      0.87282488784835     3.72085662447973     1.47936780433420
    6      3.72085662447973     0.87282488784835     1.47936780433420

 cartesian forces (hartree/bohr) at end:
    1      0.00000000000000    -0.00000000000000     0.00005257604879
    2      0.00000000000000    -0.00000000000000    -0.00005257604879
    3     -0.08483289612033    -0.08483289612033     0.00004509038276
    4      0.08483289612033     0.08483289612033     0.00004509038276
    5      0.08483289612033    -0.08483289612033    -0.00004509038276
    6     -0.08483289612033     0.08483289612033    -0.00004509038276
 frms,max,avg= 5.6555271E-02 8.4832896E-02   0.000E+00  0.000E+00  0.000E+00 h/b

 cartesian forces (eV/Angstrom) at end:
    1      0.00000000000000    -0.00000000000000     0.00270356890350
    2      0.00000000000000    -0.00000000000000    -0.00270356890350
    3     -4.36228254507887    -4.36228254507886     0.00231864051163
    4      4.36228254507886     4.36228254507887     0.00231864051163
    5      4.36228254507887    -4.36228254507886    -0.00231864051163
    6     -4.36228254507887     4.36228254507887    -0.00231864051163
 frms,max,avg= 2.9081887E+00 4.3622825E+00   0.000E+00  0.000E+00  0.000E+00 e/A
 length scales=  8.680800000000  8.680800000000  5.591100000000 bohr
              =  4.593681512328  4.593681512328  2.958682690948 angstroms
 prteigrs : about to open file RutileBase_o_EIG
 Fermi (or HOMO) energy (hartree) =   0.06641   Average Vxc (hartree)=  -0.43930
 Eigenvalues (hartree) for nkpt=   8  k points:
 kpt#   1, nband= 17, wtk=  0.12500, kpt=  0.0000  0.2500  0.0000 (reduced coord)
  -0.90138   -0.87103   -0.85489   -0.85400   -0.21043   -0.14133   -0.12936   -0.06227
  -0.05899   -0.05321   -0.04838   -0.02087   -0.00160    0.03141    0.05836    0.06641
   0.21372
 prteigrs : prtvol=0 or 1, do not print more k-points.


--------------------------------------------------------------------------------
 Components of total free energy (in Hartree) :

    Kinetic energy  =  3.65940723047387E+01
    Hartree energy  =  1.42261339612270E+01
    XC energy       = -1.97028678881426E+01
    Ewald energy    = -5.78703072019793E+01
    PspCore energy  =  1.06072459991360E+01
    Loc. psp. energy= -6.19860994846825E+01
    NL   psp  energy=  9.47899848762799E+00
    >>>>>>>>> Etotal= -6.86528238220746E+01

 Other information on the energy :
    Total energy(eV)= -1.86813834209542E+03 ; Band energy (Ha)=  -8.3237284334E+00
--------------------------------------------------------------------------------

 Cartesian components of stress tensor (hartree/bohr^3)
  sigma(1 1)=  6.86785060E-03  sigma(3 2)=  0.00000000E+00
  sigma(2 2)=  6.86785060E-03  sigma(3 1)=  0.00000000E+00
  sigma(3 3)=  3.50421716E-03  sigma(2 1)=  0.00000000E+00

-Cartesian components of stress tensor (GPa)         [Pressure= -1.6907E+02 GPa]
- sigma(1 1)=  2.02059107E+02  sigma(3 2)=  0.00000000E+00
- sigma(2 2)=  2.02059107E+02  sigma(3 1)=  0.00000000E+00
- sigma(3 3)=  1.03097611E+02  sigma(2 1)=  0.00000000E+00

== END DATASET(S) ==============================================================
================================================================================
  
 -outvars: echo values of variables after computation  --------
            acell      8.6808000000E+00  8.6808000000E+00  5.5911000000E+00 Bohr
              amu      4.78800000E+01  1.59994000E+01
           diemac      1.20000000E+01
             ecut      8.00000000E+00 Hartree
           etotal     -6.8652823822E+01
            fcart      2.3129646346E-18 -4.6259292693E-18  5.2576048794E-05
                       2.3129646346E-18 -4.6259292693E-18 -5.2576048794E-05
                      -8.4832896120E-02 -8.4832896120E-02  4.5090382760E-05
                       8.4832896120E-02  8.4832896120E-02  4.5090382760E-05
                       8.4832896120E-02 -8.4832896120E-02 -4.5090382760E-05
                      -8.4832896120E-02  8.4832896120E-02 -4.5090382760E-05
-          fftalg         112
           getwfk          -1
              kpt      0.00000000E+00  2.50000000E-01  0.00000000E+00
                       2.50000000E-01  5.00000000E-01  0.00000000E+00
                       0.00000000E+00  0.00000000E+00  2.50000000E-01
                       0.00000000E+00  5.00000000E-01  2.50000000E-01
                       2.50000000E-01  2.50000000E-01  2.50000000E-01
                       5.00000000E-01  5.00000000E-01  2.50000000E-01
                       0.00000000E+00  2.50000000E-01  5.00000000E-01
                       2.50000000E-01  5.00000000E-01  5.00000000E-01
         kptrlatt        2   -2   -2      2    2   -2      0    0    4
          kptrlen      2.23644000E+01
P           mkmem           8
            natom           6
            nband          17
            ngfft          24      24      16
             nkpt           8
            nstep          10
             nsym           8
           ntypat           2
              occ      2.000000  2.000000  2.000000  2.000000  2.000000  2.000000
                       2.000000  2.000000  2.000000  2.000000  2.000000  2.000000
                       2.000000  2.000000  2.000000  2.000000  0.000000
           shiftk     -5.00000000E-01 -5.00000000E-01  1.00000000E+00
          spgroup         113
           strten      6.8678505955E-03  6.8678505955E-03  3.5042171597E-03
                       0.0000000000E+00  0.0000000000E+00  0.0000000000E+00
           symrel      1  0  0   0  1  0   0  0  1      -1  0  0   0  1  0   0  0 -1
                      -1  0  0   0 -1  0   0  0  1       1  0  0   0 -1  0   0  0 -1
                       0  1  0   1  0  0   0  0  1       0 -1  0   1  0  0   0  0 -1
                       0 -1  0  -1  0  0   0  0  1       0  1  0  -1  0  0   0  0 -1
            tnons      0.0000000  0.0000000  0.0000000     0.5000000  0.5000000 -0.4999911
                       0.0000000  0.0000000  0.0000000     0.5000000  0.5000000 -0.4999911
                       0.0000000  0.0000000  0.0000000     0.5000000  0.5000000 -0.4999911
                       0.0000000  0.0000000  0.0000000     0.5000000  0.5000000 -0.4999911
           toldfe      1.00000000E-06 Hartree
            typat      1  1  2  2  2  2
              wtk        0.12500    0.12500    0.06250    0.12500    0.25000    0.06250
                         0.12500    0.12500
           xangst      0.0000000000E+00  0.0000000000E+00  0.0000000000E+00
                       2.2968407562E+00  2.2968407562E+00  1.4793678043E+00
                       1.4240158683E+00  1.4240158683E+00  0.0000000000E+00
                       3.1696656440E+00  3.1696656440E+00  0.0000000000E+00
                       8.7282488785E-01  3.7208566245E+00  1.4793678043E+00
                       3.7208566245E+00  8.7282488785E-01  1.4793678043E+00
            xcart      0.0000000000E+00  0.0000000000E+00  0.0000000000E+00
                       4.3404000000E+00  4.3404000000E+00  2.7956000000E+00
                       2.6910000000E+00  2.6910000000E+00  0.0000000000E+00
                       5.9898000000E+00  5.9898000000E+00  0.0000000000E+00
                       1.6494000000E+00  7.0314000000E+00  2.7956000000E+00
                       7.0314000000E+00  1.6494000000E+00  2.7956000000E+00
             xred      0.0000000000E+00  0.0000000000E+00  0.0000000000E+00
                       5.0000000000E-01  5.0000000000E-01  5.0000894278E-01
                       3.0999447056E-01  3.0999447056E-01  0.0000000000E+00
                       6.9000552944E-01  6.9000552944E-01  0.0000000000E+00
                       1.9000552944E-01  8.0999447056E-01  5.0000894278E-01
                       8.0999447056E-01  1.9000552944E-01  5.0000894278E-01
            znucl       22.00000    8.00000

================================================================================

- Total cpu        time (s,m,h):          4.6        0.08      0.001
- Total wall clock time (s,m,h):          6.0        0.10      0.002
-
- For major independent code sections, cpu and wall times (sec),
-  as well as % of the time and number of calls for node 0-
-<BEGIN_TIMER mpi_nprocs = 1, omp_nthreads = 1, mpi_rank = 0>
- cpu_time =            4.6, wall_time =            6.0
-
- routine                        cpu     %       wall     %      number of calls  Gflops    Speedup Efficacity
-                                                                  (-1=no count)
- fourwf%(pot)                   1.672  36.4      1.662  27.8           6120      -1.00        1.01       1.01
- pspini                         1.125  24.5      1.251  20.9              1      -1.00        0.90       0.90
- nonlop(apply)                  0.484  10.5      0.558   9.3           6120      -1.00        0.87       0.87
- projbd                         0.344   7.5      0.481   8.0           9792      -1.00        0.71       0.71
- getghc-other                   0.219   4.8      0.133   2.2             -1      -1.00        1.64       1.64
- vtowfk(ssdiag)                 0.188   4.1      0.359   6.0             -1      -1.00        0.52       0.52
- timing timab                   0.125   2.7      0.125   2.1              8      -1.00        1.00       1.00
- invars2                        0.031   0.7      0.042   0.7              1      -1.00        0.74       0.74
- vtowfk(contrib)                0.031   0.7      0.133   2.2             56      -1.00        0.23       0.23
- others (104)                   0.141   3.1      0.598  10.0             -1      -1.00        0.24       0.24
-<END_TIMER>
-
- subtotal                       4.359  94.9      5.342  89.3                                  0.82       0.82

- For major independent code sections, cpu and wall times (sec),
- as well as % of the total time and number of calls 

-<BEGIN_TIMER mpi_nprocs = 1, omp_nthreads = 1, mpi_rank = world>
- cpu_time =           4.6, wall_time =           6.0
-
- routine                         cpu     %       wall     %      number of calls Gflops    Speedup Efficacity
-                                                                  (-1=no count)
- fourwf%(pot)                   1.672  36.4      1.662  27.8           6120      -1.00        1.01       1.01
- pspini                         1.125  24.5      1.251  20.9              1      -1.00        0.90       0.90
- nonlop(apply)                  0.484  10.5      0.558   9.3           6120      -1.00        0.87       0.87
- projbd                         0.344   7.5      0.481   8.0           9792      -1.00        0.71       0.71
- getghc-other                   0.219   4.8      0.133   2.2             -1      -1.00        1.64       1.64
- vtowfk(ssdiag)                 0.188   4.1      0.359   6.0             -1      -1.00        0.52       0.52
- timing timab                   0.125   2.7      0.125   2.1              8      -1.00        1.00       1.00
- invars2                        0.031   0.7      0.042   0.7              1      -1.00        0.74       0.74
- vtowfk(contrib)                0.031   0.7      0.133   2.2             56      -1.00        0.23       0.23
- others (104)                   0.141   3.1      0.598  10.0             -1      -1.00        0.24       0.24
-<END_TIMER>

- subtotal                       4.359  94.9      5.342  89.3                                  0.82       0.82

================================================================================

 Suggested references for the acknowledgment of ABINIT usage.

 The users of ABINIT have little formal obligations with respect to the ABINIT group
 (those specified in the GNU General Public License, http://www.gnu.org/copyleft/gpl.txt).
 However, it is common practice in the scientific literature,
 to acknowledge the efforts of people that have made the research possible.
 In this spirit, please find below suggested citations of work written by ABINIT developers,
 corresponding to implementations inside of ABINIT that you have used in the present run.
 Note also that it will be of great value to readers of publications presenting these results,
 to read papers enabling them to understand the theoretical formalism and details
 of the ABINIT implementation.
 For information on why they are suggested, see also https://www.abinit.org/about/?text=acknowledgments.
-
- [1] Recent developments in the ABINIT software package.
- Computer Phys. Comm. 205, 106 (2016).
- X.Gonze, F.Jollet, F.Abreu Araujo, D.Adams, B.Amadon, T.Applencourt,
- C.Audouze, J.-M.Beuken, J.Bieder, A.Bokhanchuk, E.Bousquet, F.Bruneval
- D.Caliste, M.Cote, F.Dahm, F.Da Pieve, M.Delaveau, M.Di Gennaro,
- B.Dorado, C.Espejo, G.Geneste, L.Genovese, A.Gerossier, M.Giantomassi,
- Y.Gillet, D.R.Hamann, L.He, G.Jomard, J.Laflamme Janssen, S.Le Roux,
- A.Levitt, A.Lherbier, F.Liu, I.Lukacevic, A.Martin, C.Martins,
- M.J.T.Oliveira, S.Ponce, Y.Pouillon, T.Rangel, G.-M.Rignanese,
- A.H.Romero, B.Rousseau, O.Rubel, A.A.Shukri, M.Stankovski, M.Torrent,
- M.J.Van Setten, B.Van Troeye, M.J.Verstraete, D.Waroquier, J.Wiktor,
- B.Xue, A.Zhou, J.W.Zwanziger.
- Comment : the fourth generic paper describing the ABINIT project.
- Note that a version of this paper, that is not formatted for Computer Phys. Comm. 
- is available at https://www.abinit.org/about/ABINIT16.pdf .
- The licence allows the authors to put it on the Web.
-
- [2] ABINIT : First-principles approach of materials and nanosystem properties.
- Computer Phys. Comm. 180, 2582-2615 (2009).
- X. Gonze, B. Amadon, P.-M. Anglade, J.-M. Beuken, F. Bottin, P. Boulanger, F. Bruneval,
- D. Caliste, R. Caracas, M. Cote, T. Deutsch, L. Genovese, Ph. Ghosez, M. Giantomassi
- S. Goedecker, D.R. Hamann, P. Hermet, F. Jollet, G. Jomard, S. Leroux, M. Mancini, S. Mazevet,
- M.J.T. Oliveira, G. Onida, Y. Pouillon, T. Rangel, G.-M. Rignanese, D. Sangalli, R. Shaltaf,
- M. Torrent, M.J. Verstraete, G. Zerah, J.W. Zwanziger
- Comment : the third generic paper describing the ABINIT project.
- Note that a version of this paper, that is not formatted for Computer Phys. Comm. 
- is available at https://www.abinit.org/about/ABINIT_CPC_v10.pdf .
- The licence allows the authors to put it on the Web.
-
- [3] A brief introduction to the ABINIT software package.
- Z. Kristallogr. 220, 558-562 (2005).
- X. Gonze, G.-M. Rignanese, M. Verstraete, J.-M. Beuken, Y. Pouillon, R. Caracas, F. Jollet,
- M. Torrent, G. Zerah, M. Mikami, Ph. Ghosez, M. Veithen, J.-Y. Raty, V. Olevano, F. Bruneval,
- L. Reining, R. Godby, G. Onida, D.R. Hamann, and D.C. Allan.
- Comment : the second generic paper describing the ABINIT project. Note that this paper
- should be cited especially if you are using the GW part of ABINIT, as several authors
- of this part are not in the list of authors of the first or third paper.
- The .pdf of the latter paper is available at https://www.abinit.org/about/zfk_0505-06_558-562.pdf.
- Note that it should not redistributed (Copyright by Oldenburg Wissenshaftverlag,
- the licence allows the authors to put it on the Web).
-
- And optionally:
-
- [4] First-principles computation of material properties : the ABINIT software project. 
- X. Gonze, J.-M. Beuken, R. Caracas, F. Detraux, M. Fuchs, G.-M. Rignanese, L. Sindic,
- M. Verstraete, G. Zerah, F. Jollet, M. Torrent, A. Roy, M. Mikami, Ph. Ghosez, J.-Y. Raty, D.C. Allan.
- Computational Materials Science 25, 478-492 (2002). http://dx.doi.org/10.1016/S0927-0256(02)00325-7
- Comment : the original paper describing the ABINIT project.
-
- Proc.   0 individual time (sec): cpu=          4.6  wall=          6.0

================================================================================

 Calculation completed.
.Delivered   4 WARNINGs and   0 COMMENTs to log file.
+Overall time at end (sec) : cpu=          4.6  wall=          6.0
