  ABINIT 8.6.3
  
  Give name for formatted input file: 
PdBaseBigBasis.in
  Give name for formatted output file:
PdBaseBigBasis.out
  Give root name for generic input files:
PdBaseBigBasis_i
  Give root name for generic output files:
PdBaseBigBasis_o
  Give root name for generic temporary files:
PdBaseBigBasis

.Version 8.6.3 of ABINIT 
.(sequential version, prepared for a x86_64_linux_gnu5.4 computer) 

.Copyright (C) 1998-2017 ABINIT group . 
 ABINIT comes with ABSOLUTELY NO WARRANTY.
 It is free software, and you are welcome to redistribute it
 under certain conditions (GNU General Public License,
 see ~abinit/COPYING or http://www.gnu.org/copyleft/gpl.txt).

 ABINIT is a project of the Universite Catholique de Louvain,
 Corning Inc. and other collaborators, see ~abinit/doc/developers/contributors.txt .
 Please read ~abinit/doc/users/acknowledgments.html for suggested
 acknowledgments of the ABINIT effort.
 For more information, see https://www.abinit.org .

.Starting date : Sat 21 Apr 2018.
- ( at 14h16 )
  

 ++++++++++++++++++++++++++++++++++++++++++++++++++++++++++++++++++++++++++++++

 === Build Information === 
  Version       : 8.6.3
  Build target  : x86_64_linux_gnu5.4
  Build date    : 20180412

 === Compiler Suite === 
  C compiler       : gnu5.4
  C++ compiler     : gnu5.4
  Fortran compiler : gnu5.4
  CFLAGS           :  -g -O2 -mtune=native -march=native
  CXXFLAGS         :  -g -O2 -mtune=native -march=native
  FCFLAGS          :  -g -ffree-line-length-none
  FC_LDFLAGS       : 

 === Optimizations === 
  Debug level        : basic
  Optimization level : standard
  Architecture       : unknown_unknown

 === Multicore === 
  Parallel build : no
  Parallel I/O   : no
  openMP support : no
  GPU support    : no

 === Connectors / Fallbacks === 
  Connectors on : yes
  Fallbacks on  : yes
  DFT flavor    : none
  FFT flavor    : none
  LINALG flavor : netlib-fallback
  MATH flavor   : none
  TIMER flavor  : abinit
  TRIO flavor   : none

 === Experimental features === 
  Bindings            : @enable_bindings@
  Exports             : no
  GW double-precision : no

 ++++++++++++++++++++++++++++++++++++++++++++++++++++++++++++++++++++++++++++++


 ++++++++++++++++++++++++++++++++++++++++++++++++++++++++++++++++++++++++++++++
 Default optimizations:
   -O2 -mtune=native -march=native


 Optimizations for 20_datashare:
   -O0


 ++++++++++++++++++++++++++++++++++++++++++++++++++++++++++++++++++++++++++++++


 ++++++++++++++++++++++++++++++++++++++++++++++++++++++++++++++++++++++++++++++
 CPP options activated during the build:

                    CC_GNU                   CXX_GNU                    FC_GNU
 
 HAVE_FC_ALLOCATABLE_DT...             HAVE_FC_ASYNC         HAVE_FC_BACKTRACE
 
  HAVE_FC_COMMAND_ARGUMENT      HAVE_FC_COMMAND_LINE        HAVE_FC_CONTIGUOUS
 
           HAVE_FC_CPUTIME              HAVE_FC_EXIT             HAVE_FC_FLUSH
 
             HAVE_FC_GAMMA            HAVE_FC_GETENV   HAVE_FC_IEEE_EXCEPTIONS
 
          HAVE_FC_INT_QUAD             HAVE_FC_IOMSG     HAVE_FC_ISO_C_BINDING
 
  HAVE_FC_ISO_FORTRAN_2008        HAVE_FC_LONG_LINES        HAVE_FC_MOVE_ALLOC
 
           HAVE_FC_PRIVATE         HAVE_FC_PROTECTED         HAVE_FC_STREAM_IO
 
            HAVE_FC_SYSTEM          HAVE_FORTRAN2003        HAVE_LIBPAW_ABINIT
 
      HAVE_LIBTETRA_ABINIT             HAVE_OS_LINUX         HAVE_TIMER_ABINIT
 
              USE_MACROAVE                                                      
 ++++++++++++++++++++++++++++++++++++++++++++++++++++++++++++++++++++++++++++++

- input  file    -> PdBaseBigBasis.in
- output file    -> PdBaseBigBasis.out
- root for input  files -> PdBaseBigBasis_i
- root for output files -> PdBaseBigBasis_o

-instrng: 90 lines of input have been read from file PdBaseBigBasis.in


 Please give name of formatted atomic psp file
 iofn2 : for atom type 1, psp file is ../../../Psps_for_tests/Pd.psp8
  read the values zionpsp= 18.0 , pspcod=   8 , lmax=   2

 inpspheads: deduce mpsang = 3, n1xccc = 2501.
 invars1 : treat image number: 1

 symlatt : the Bravais lattice is cP (primitive cubic)
  xred   is defined in input file
 ingeo : takes atomic coordinates from input array xred
 symfind : exit, nsym=192
   symrel matrices, symafm and tnons are :
   1       1   0   0     0   1   0     0   0   1       1      0.0000  0.0000  0.0000
   2       1   0   0     0   1   0     0   0   1       1      0.0000  0.5000  0.5000
   3       1   0   0     0   1   0     0   0   1       1      0.5000  0.0000  0.5000
   4       1   0   0     0   1   0     0   0   1       1      0.5000  0.5000  0.0000
   5      -1   0   0     0  -1   0     0   0  -1       1      0.0000  0.0000  0.0000
   6      -1   0   0     0  -1   0     0   0  -1       1      0.0000  0.5000  0.5000
   7      -1   0   0     0  -1   0     0   0  -1       1      0.5000  0.0000  0.5000
   8      -1   0   0     0  -1   0     0   0  -1       1      0.5000  0.5000  0.0000
   9      -1   0   0     0   1   0     0   0  -1       1      0.0000  0.0000  0.0000
  10      -1   0   0     0   1   0     0   0  -1       1      0.0000  0.5000  0.5000
  11      -1   0   0     0   1   0     0   0  -1       1      0.5000  0.0000  0.5000
  12      -1   0   0     0   1   0     0   0  -1       1      0.5000  0.5000  0.0000
  13       1   0   0     0  -1   0     0   0   1       1      0.0000  0.0000  0.0000
  14       1   0   0     0  -1   0     0   0   1       1      0.0000  0.5000  0.5000
  15       1   0   0     0  -1   0     0   0   1       1      0.5000  0.0000  0.5000
  16       1   0   0     0  -1   0     0   0   1       1      0.5000  0.5000  0.0000
  17      -1   0   0     0  -1   0     0   0   1       1      0.0000  0.0000  0.0000
  18      -1   0   0     0  -1   0     0   0   1       1      0.0000  0.5000  0.5000
  19      -1   0   0     0  -1   0     0   0   1       1      0.5000  0.0000  0.5000
  20      -1   0   0     0  -1   0     0   0   1       1      0.5000  0.5000  0.0000
  21       1   0   0     0   1   0     0   0  -1       1      0.0000  0.0000  0.0000
  22       1   0   0     0   1   0     0   0  -1       1      0.0000  0.5000  0.5000
  23       1   0   0     0   1   0     0   0  -1       1      0.5000  0.0000  0.5000
  24       1   0   0     0   1   0     0   0  -1       1      0.5000  0.5000  0.0000
  25       1   0   0     0  -1   0     0   0  -1       1      0.0000  0.0000  0.0000
  26       1   0   0     0  -1   0     0   0  -1       1      0.0000  0.5000  0.5000
  27       1   0   0     0  -1   0     0   0  -1       1      0.5000  0.0000  0.5000
  28       1   0   0     0  -1   0     0   0  -1       1      0.5000  0.5000  0.0000
  29      -1   0   0     0   1   0     0   0   1       1      0.0000  0.0000  0.0000
  30      -1   0   0     0   1   0     0   0   1       1      0.0000  0.5000  0.5000
  31      -1   0   0     0   1   0     0   0   1       1      0.5000  0.0000  0.5000
  32      -1   0   0     0   1   0     0   0   1       1      0.5000  0.5000  0.0000
  33       0   1   0     1   0   0     0   0   1       1      0.0000  0.0000  0.0000
  34       0   1   0     1   0   0     0   0   1       1      0.0000  0.5000  0.5000
  35       0   1   0     1   0   0     0   0   1       1      0.5000  0.0000  0.5000
  36       0   1   0     1   0   0     0   0   1       1      0.5000  0.5000  0.0000
  37       0  -1   0    -1   0   0     0   0  -1       1      0.0000  0.0000  0.0000
  38       0  -1   0    -1   0   0     0   0  -1       1      0.0000  0.5000  0.5000
  39       0  -1   0    -1   0   0     0   0  -1       1      0.5000  0.0000  0.5000
  40       0  -1   0    -1   0   0     0   0  -1       1      0.5000  0.5000  0.0000
  41       0  -1   0     1   0   0     0   0  -1       1      0.0000  0.0000  0.0000
  42       0  -1   0     1   0   0     0   0  -1       1      0.0000  0.5000  0.5000
  43       0  -1   0     1   0   0     0   0  -1       1      0.5000  0.0000  0.5000
  44       0  -1   0     1   0   0     0   0  -1       1      0.5000  0.5000  0.0000
  45       0   1   0    -1   0   0     0   0   1       1      0.0000  0.0000  0.0000
  46       0   1   0    -1   0   0     0   0   1       1      0.0000  0.5000  0.5000
  47       0   1   0    -1   0   0     0   0   1       1      0.5000  0.0000  0.5000
  48       0   1   0    -1   0   0     0   0   1       1      0.5000  0.5000  0.0000
  49       0  -1   0    -1   0   0     0   0   1       1      0.0000  0.0000  0.0000
  50       0  -1   0    -1   0   0     0   0   1       1      0.0000  0.5000  0.5000
  51       0  -1   0    -1   0   0     0   0   1       1      0.5000  0.0000  0.5000
  52       0  -1   0    -1   0   0     0   0   1       1      0.5000  0.5000  0.0000
  53       0   1   0     1   0   0     0   0  -1       1      0.0000  0.0000  0.0000
  54       0   1   0     1   0   0     0   0  -1       1      0.0000  0.5000  0.5000
  55       0   1   0     1   0   0     0   0  -1       1      0.5000  0.0000  0.5000
  56       0   1   0     1   0   0     0   0  -1       1      0.5000  0.5000  0.0000
  57       0   1   0    -1   0   0     0   0  -1       1      0.0000  0.0000  0.0000
  58       0   1   0    -1   0   0     0   0  -1       1      0.0000  0.5000  0.5000
  59       0   1   0    -1   0   0     0   0  -1       1      0.5000  0.0000  0.5000
  60       0   1   0    -1   0   0     0   0  -1       1      0.5000  0.5000  0.0000
  61       0  -1   0     1   0   0     0   0   1       1      0.0000  0.0000  0.0000
  62       0  -1   0     1   0   0     0   0   1       1      0.0000  0.5000  0.5000
  63       0  -1   0     1   0   0     0   0   1       1      0.5000  0.0000  0.5000
  64       0  -1   0     1   0   0     0   0   1       1      0.5000  0.5000  0.0000
  65       0   0   1     1   0   0     0   1   0       1      0.0000  0.0000  0.0000
  66       0   0   1     1   0   0     0   1   0       1      0.0000  0.5000  0.5000
  67       0   0   1     1   0   0     0   1   0       1      0.5000  0.0000  0.5000
  68       0   0   1     1   0   0     0   1   0       1      0.5000  0.5000  0.0000
  69       0   0  -1    -1   0   0     0  -1   0       1      0.0000  0.0000  0.0000
  70       0   0  -1    -1   0   0     0  -1   0       1      0.0000  0.5000  0.5000
  71       0   0  -1    -1   0   0     0  -1   0       1      0.5000  0.0000  0.5000
  72       0   0  -1    -1   0   0     0  -1   0       1      0.5000  0.5000  0.0000
  73       0   0  -1     1   0   0     0  -1   0       1      0.0000  0.0000  0.0000
  74       0   0  -1     1   0   0     0  -1   0       1      0.0000  0.5000  0.5000
  75       0   0  -1     1   0   0     0  -1   0       1      0.5000  0.0000  0.5000
  76       0   0  -1     1   0   0     0  -1   0       1      0.5000  0.5000  0.0000
  77       0   0   1    -1   0   0     0   1   0       1      0.0000  0.0000  0.0000
  78       0   0   1    -1   0   0     0   1   0       1      0.0000  0.5000  0.5000
  79       0   0   1    -1   0   0     0   1   0       1      0.5000  0.0000  0.5000
  80       0   0   1    -1   0   0     0   1   0       1      0.5000  0.5000  0.0000
  81       0   0  -1    -1   0   0     0   1   0       1      0.0000  0.0000  0.0000
  82       0   0  -1    -1   0   0     0   1   0       1      0.0000  0.5000  0.5000
  83       0   0  -1    -1   0   0     0   1   0       1      0.5000  0.0000  0.5000
  84       0   0  -1    -1   0   0     0   1   0       1      0.5000  0.5000  0.0000
  85       0   0   1     1   0   0     0  -1   0       1      0.0000  0.0000  0.0000
  86       0   0   1     1   0   0     0  -1   0       1      0.0000  0.5000  0.5000
  87       0   0   1     1   0   0     0  -1   0       1      0.5000  0.0000  0.5000
  88       0   0   1     1   0   0     0  -1   0       1      0.5000  0.5000  0.0000
  89       0   0   1    -1   0   0     0  -1   0       1      0.0000  0.0000  0.0000
  90       0   0   1    -1   0   0     0  -1   0       1      0.0000  0.5000  0.5000
  91       0   0   1    -1   0   0     0  -1   0       1      0.5000  0.0000  0.5000
  92       0   0   1    -1   0   0     0  -1   0       1      0.5000  0.5000  0.0000
  93       0   0  -1     1   0   0     0   1   0       1      0.0000  0.0000  0.0000
  94       0   0  -1     1   0   0     0   1   0       1      0.0000  0.5000  0.5000
  95       0   0  -1     1   0   0     0   1   0       1      0.5000  0.0000  0.5000
  96       0   0  -1     1   0   0     0   1   0       1      0.5000  0.5000  0.0000
  97       1   0   0     0   0   1     0   1   0       1      0.0000  0.0000  0.0000
  98       1   0   0     0   0   1     0   1   0       1      0.0000  0.5000  0.5000
  99       1   0   0     0   0   1     0   1   0       1      0.5000  0.0000  0.5000
 100       1   0   0     0   0   1     0   1   0       1      0.5000  0.5000  0.0000
 101      -1   0   0     0   0  -1     0  -1   0       1      0.0000  0.0000  0.0000
 102      -1   0   0     0   0  -1     0  -1   0       1      0.0000  0.5000  0.5000
 103      -1   0   0     0   0  -1     0  -1   0       1      0.5000  0.0000  0.5000
 104      -1   0   0     0   0  -1     0  -1   0       1      0.5000  0.5000  0.0000
 105      -1   0   0     0   0   1     0  -1   0       1      0.0000  0.0000  0.0000
 106      -1   0   0     0   0   1     0  -1   0       1      0.0000  0.5000  0.5000
 107      -1   0   0     0   0   1     0  -1   0       1      0.5000  0.0000  0.5000
 108      -1   0   0     0   0   1     0  -1   0       1      0.5000  0.5000  0.0000
 109       1   0   0     0   0  -1     0   1   0       1      0.0000  0.0000  0.0000
 110       1   0   0     0   0  -1     0   1   0       1      0.0000  0.5000  0.5000
 111       1   0   0     0   0  -1     0   1   0       1      0.5000  0.0000  0.5000
 112       1   0   0     0   0  -1     0   1   0       1      0.5000  0.5000  0.0000
 113      -1   0   0     0   0  -1     0   1   0       1      0.0000  0.0000  0.0000
 114      -1   0   0     0   0  -1     0   1   0       1      0.0000  0.5000  0.5000
 115      -1   0   0     0   0  -1     0   1   0       1      0.5000  0.0000  0.5000
 116      -1   0   0     0   0  -1     0   1   0       1      0.5000  0.5000  0.0000
 117       1   0   0     0   0   1     0  -1   0       1      0.0000  0.0000  0.0000
 118       1   0   0     0   0   1     0  -1   0       1      0.0000  0.5000  0.5000
 119       1   0   0     0   0   1     0  -1   0       1      0.5000  0.0000  0.5000
 120       1   0   0     0   0   1     0  -1   0       1      0.5000  0.5000  0.0000
 121       1   0   0     0   0  -1     0  -1   0       1      0.0000  0.0000  0.0000
 122       1   0   0     0   0  -1     0  -1   0       1      0.0000  0.5000  0.5000
 123       1   0   0     0   0  -1     0  -1   0       1      0.5000  0.0000  0.5000
 124       1   0   0     0   0  -1     0  -1   0       1      0.5000  0.5000  0.0000
 125      -1   0   0     0   0   1     0   1   0       1      0.0000  0.0000  0.0000
 126      -1   0   0     0   0   1     0   1   0       1      0.0000  0.5000  0.5000
 127      -1   0   0     0   0   1     0   1   0       1      0.5000  0.0000  0.5000
 128      -1   0   0     0   0   1     0   1   0       1      0.5000  0.5000  0.0000
 129       0   1   0     0   0   1     1   0   0       1      0.0000  0.0000  0.0000
 130       0   1   0     0   0   1     1   0   0       1      0.0000  0.5000  0.5000
 131       0   1   0     0   0   1     1   0   0       1      0.5000  0.0000  0.5000
 132       0   1   0     0   0   1     1   0   0       1      0.5000  0.5000  0.0000
 133       0  -1   0     0   0  -1    -1   0   0       1      0.0000  0.0000  0.0000
 134       0  -1   0     0   0  -1    -1   0   0       1      0.0000  0.5000  0.5000
 135       0  -1   0     0   0  -1    -1   0   0       1      0.5000  0.0000  0.5000
 136       0  -1   0     0   0  -1    -1   0   0       1      0.5000  0.5000  0.0000
 137       0  -1   0     0   0   1    -1   0   0       1      0.0000  0.0000  0.0000
 138       0  -1   0     0   0   1    -1   0   0       1      0.0000  0.5000  0.5000
 139       0  -1   0     0   0   1    -1   0   0       1      0.5000  0.0000  0.5000
 140       0  -1   0     0   0   1    -1   0   0       1      0.5000  0.5000  0.0000
 141       0   1   0     0   0  -1     1   0   0       1      0.0000  0.0000  0.0000
 142       0   1   0     0   0  -1     1   0   0       1      0.0000  0.5000  0.5000
 143       0   1   0     0   0  -1     1   0   0       1      0.5000  0.0000  0.5000
 144       0   1   0     0   0  -1     1   0   0       1      0.5000  0.5000  0.0000
 145       0  -1   0     0   0  -1     1   0   0       1      0.0000  0.0000  0.0000
 146       0  -1   0     0   0  -1     1   0   0       1      0.0000  0.5000  0.5000
 147       0  -1   0     0   0  -1     1   0   0       1      0.5000  0.0000  0.5000
 148       0  -1   0     0   0  -1     1   0   0       1      0.5000  0.5000  0.0000
 149       0   1   0     0   0   1    -1   0   0       1      0.0000  0.0000  0.0000
 150       0   1   0     0   0   1    -1   0   0       1      0.0000  0.5000  0.5000
 151       0   1   0     0   0   1    -1   0   0       1      0.5000  0.0000  0.5000
 152       0   1   0     0   0   1    -1   0   0       1      0.5000  0.5000  0.0000
 153       0   1   0     0   0  -1    -1   0   0       1      0.0000  0.0000  0.0000
 154       0   1   0     0   0  -1    -1   0   0       1      0.0000  0.5000  0.5000
 155       0   1   0     0   0  -1    -1   0   0       1      0.5000  0.0000  0.5000
 156       0   1   0     0   0  -1    -1   0   0       1      0.5000  0.5000  0.0000
 157       0  -1   0     0   0   1     1   0   0       1      0.0000  0.0000  0.0000
 158       0  -1   0     0   0   1     1   0   0       1      0.0000  0.5000  0.5000
 159       0  -1   0     0   0   1     1   0   0       1      0.5000  0.0000  0.5000
 160       0  -1   0     0   0   1     1   0   0       1      0.5000  0.5000  0.0000
 161       0   0   1     0   1   0     1   0   0       1      0.0000  0.0000  0.0000
 162       0   0   1     0   1   0     1   0   0       1      0.0000  0.5000  0.5000
 163       0   0   1     0   1   0     1   0   0       1      0.5000  0.0000  0.5000
 164       0   0   1     0   1   0     1   0   0       1      0.5000  0.5000  0.0000
 165       0   0  -1     0  -1   0    -1   0   0       1      0.0000  0.0000  0.0000
 166       0   0  -1     0  -1   0    -1   0   0       1      0.0000  0.5000  0.5000
 167       0   0  -1     0  -1   0    -1   0   0       1      0.5000  0.0000  0.5000
 168       0   0  -1     0  -1   0    -1   0   0       1      0.5000  0.5000  0.0000
 169       0   0  -1     0   1   0    -1   0   0       1      0.0000  0.0000  0.0000
 170       0   0  -1     0   1   0    -1   0   0       1      0.0000  0.5000  0.5000
 171       0   0  -1     0   1   0    -1   0   0       1      0.5000  0.0000  0.5000
 172       0   0  -1     0   1   0    -1   0   0       1      0.5000  0.5000  0.0000
 173       0   0   1     0  -1   0     1   0   0       1      0.0000  0.0000  0.0000
 174       0   0   1     0  -1   0     1   0   0       1      0.0000  0.5000  0.5000
 175       0   0   1     0  -1   0     1   0   0       1      0.5000  0.0000  0.5000
 176       0   0   1     0  -1   0     1   0   0       1      0.5000  0.5000  0.0000
 177       0   0  -1     0  -1   0     1   0   0       1      0.0000  0.0000  0.0000
 178       0   0  -1     0  -1   0     1   0   0       1      0.0000  0.5000  0.5000
 179       0   0  -1     0  -1   0     1   0   0       1      0.5000  0.0000  0.5000
 180       0   0  -1     0  -1   0     1   0   0       1      0.5000  0.5000  0.0000
 181       0   0   1     0   1   0    -1   0   0       1      0.0000  0.0000  0.0000
 182       0   0   1     0   1   0    -1   0   0       1      0.0000  0.5000  0.5000
 183       0   0   1     0   1   0    -1   0   0       1      0.5000  0.0000  0.5000
 184       0   0   1     0   1   0    -1   0   0       1      0.5000  0.5000  0.0000
 185       0   0   1     0  -1   0    -1   0   0       1      0.0000  0.0000  0.0000
 186       0   0   1     0  -1   0    -1   0   0       1      0.0000  0.5000  0.5000
 187       0   0   1     0  -1   0    -1   0   0       1      0.5000  0.0000  0.5000
 188       0   0   1     0  -1   0    -1   0   0       1      0.5000  0.5000  0.0000
 189       0   0  -1     0   1   0     1   0   0       1      0.0000  0.0000  0.0000
 190       0   0  -1     0   1   0     1   0   0       1      0.0000  0.5000  0.5000
 191       0   0  -1     0   1   0     1   0   0       1      0.5000  0.0000  0.5000
 192       0   0  -1     0   1   0     1   0   0       1      0.5000  0.5000  0.0000

 symlatt : the Bravais lattice is cP (primitive cubic)

--- !COMMENT
src_file: chkprimit.F90
src_line: 106
message: |
    According to the symmetry finder, the unit cell is
    not primitive, with multiplicity=4.
    This is allowed, as the input variable chkprim is 0.
...

 ingeo : angdeg(1:3)=   90.00000000   90.00000000   90.00000000
 invars2: take the default value of fband=  1.25000000E-01
 chkneu : initialized the occupation numbers for occopt=    1, spin-unpolarized or antiferromagnetic case :
  2.00  2.00  2.00  2.00  2.00  2.00  2.00  2.00  2.00  2.00  2.00  2.00
  2.00  2.00  2.00  2.00  2.00  2.00  2.00  2.00  2.00  2.00  2.00  2.00
  2.00  2.00  2.00  2.00  2.00  2.00  2.00  2.00  2.00  2.00  2.00  2.00
  0.00
mpi_setup: mkmem  undefined in the input file.Use default mkmem  = nkpt
 mpi_setup: With nkpt_me=4 and mkmem  = 4, ground state wf handled in core.
mpi_setup: mkqmem undefined in the input file.Use default mkqmem = nkpt
 mpi_setup: With nkpt_me=4 and mkqmem = 4, ground state wf handled in core.
mpi_setup: mk1mem undefined in the input file.Use default mk1mem = nkpt
 mpi_setup: With nkpt_me=4 and mk1mem = 4, ground state wf handled in core.
 For input ecut=  8.000000E+00 best grid ngfft=      20      20      20
       max ecut=  9.134716E+00

 ==== FFT mesh ====
  FFT mesh divisions ........................    20   20   20
  Augmented FFT divisions ...................    21   21   20
  FFT algorithm .............................   112
  FFT cache size ............................    16
 getmpw: optimal value of mpw= 438

 Symmetries : the unit cell is not primitive

 getdim_nloc : deduce lmnmax  =  18, lnmax  =   6,
                      lmnmaxso=  18, lnmaxso=   6.
memory : analysis of memory needs
================================================================================
 Values of the parameters that define the memory need of the present run
     intxc =       0    ionmov =       0      iscf =       7    lmnmax =       6
     lnmax =       6     mgfft =      20  mpssoang =       3    mqgrid =    3001
     natom =       4  nloc_mem =       1    nspden =       1   nspinor =       1
    nsppol =       1      nsym =     192    n1xccc =    2501    ntypat =       1
    occopt =       1   xclevel =       2
-    mband =          37        mffmem =           1         mkmem =           4
       mpw =         438          nfft =        8000          nkpt =           4
================================================================================
P This job should need less than                       4.338 Mbytes of memory.
  Rough estimation (10% accuracy) of disk space for files :
_ WF disk file :      0.991 Mbytes ; DEN or POT disk file :      0.063 Mbytes.
================================================================================

 Biggest array : cg(disk), with      0.9911 MBytes.
 memana : allocated an array of      0.991 Mbytes, for testing purposes.
 memana: allocated       4.338Mbytes, for testing purposes. 
 The job will continue.
--------------------------------------------------------------------------------
------------- Echo of variables that govern the present computation ------------
--------------------------------------------------------------------------------
-
- outvars: echo of selected default values                                      
-   iomode0 =  0 , fftalg0 =112 , wfoptalg0 =  0
-
- outvars: echo of global parameters not present in the input file              
-  max_nthreads =    0
-
 -outvars: echo values of preprocessed input variables --------
            acell      7.3500000000E+00  7.3500000000E+00  7.3500000000E+00 Bohr
              amu      1.06420000E+02
           diemac      1.20000000E+01
             ecut      8.00000000E+00 Hartree
-          fftalg         112
           getwfk          -1
              ixc          11
              kpt     -2.50000000E-01  5.00000000E-01  0.00000000E+00
                      -2.50000000E-01 -2.50000000E-01  2.50000000E-01
                      -2.50000000E-01  0.00000000E+00  0.00000000E+00
                       5.00000000E-01  5.00000000E-01  2.50000000E-01
         kptrlatt        2   -2    2     -2    2    2     -2   -2    2
          kptrlen      2.54611469E+01
P           mkmem           4
            natom           4
            nband          37
            ngfft          20      20      20
             nkpt           4
            nstep          10
             nsym         192
           ntypat           1
              occ      2.000000  2.000000  2.000000  2.000000  2.000000  2.000000
                       2.000000  2.000000  2.000000  2.000000  2.000000  2.000000
                       2.000000  2.000000  2.000000  2.000000  2.000000  2.000000
                       2.000000  2.000000  2.000000  2.000000  2.000000  2.000000
                       2.000000  2.000000  2.000000  2.000000  2.000000  2.000000
                       2.000000  2.000000  2.000000  2.000000  2.000000  2.000000
                       0.000000
           shiftk      5.00000000E-01  5.00000000E-01  5.00000000E-01
           symrel      1  0  0   0  1  0   0  0  1       1  0  0   0  1  0   0  0  1
                       1  0  0   0  1  0   0  0  1       1  0  0   0  1  0   0  0  1
                      -1  0  0   0 -1  0   0  0 -1      -1  0  0   0 -1  0   0  0 -1
                      -1  0  0   0 -1  0   0  0 -1      -1  0  0   0 -1  0   0  0 -1
                      -1  0  0   0  1  0   0  0 -1      -1  0  0   0  1  0   0  0 -1
                      -1  0  0   0  1  0   0  0 -1      -1  0  0   0  1  0   0  0 -1
                       1  0  0   0 -1  0   0  0  1       1  0  0   0 -1  0   0  0  1
                       1  0  0   0 -1  0   0  0  1       1  0  0   0 -1  0   0  0  1
                      -1  0  0   0 -1  0   0  0  1      -1  0  0   0 -1  0   0  0  1
                      -1  0  0   0 -1  0   0  0  1      -1  0  0   0 -1  0   0  0  1
                       1  0  0   0  1  0   0  0 -1       1  0  0   0  1  0   0  0 -1
                       1  0  0   0  1  0   0  0 -1       1  0  0   0  1  0   0  0 -1
                       1  0  0   0 -1  0   0  0 -1       1  0  0   0 -1  0   0  0 -1
                       1  0  0   0 -1  0   0  0 -1       1  0  0   0 -1  0   0  0 -1
                      -1  0  0   0  1  0   0  0  1      -1  0  0   0  1  0   0  0  1
                      -1  0  0   0  1  0   0  0  1      -1  0  0   0  1  0   0  0  1
                       0  1  0   1  0  0   0  0  1       0  1  0   1  0  0   0  0  1
                       0  1  0   1  0  0   0  0  1       0  1  0   1  0  0   0  0  1
                       0 -1  0  -1  0  0   0  0 -1       0 -1  0  -1  0  0   0  0 -1
                       0 -1  0  -1  0  0   0  0 -1       0 -1  0  -1  0  0   0  0 -1
                       0 -1  0   1  0  0   0  0 -1       0 -1  0   1  0  0   0  0 -1
                       0 -1  0   1  0  0   0  0 -1       0 -1  0   1  0  0   0  0 -1
                       0  1  0  -1  0  0   0  0  1       0  1  0  -1  0  0   0  0  1
                       0  1  0  -1  0  0   0  0  1       0  1  0  -1  0  0   0  0  1
                       0 -1  0  -1  0  0   0  0  1       0 -1  0  -1  0  0   0  0  1
                       0 -1  0  -1  0  0   0  0  1       0 -1  0  -1  0  0   0  0  1
                       0  1  0   1  0  0   0  0 -1       0  1  0   1  0  0   0  0 -1
                       0  1  0   1  0  0   0  0 -1       0  1  0   1  0  0   0  0 -1
                       0  1  0  -1  0  0   0  0 -1       0  1  0  -1  0  0   0  0 -1
                       0  1  0  -1  0  0   0  0 -1       0  1  0  -1  0  0   0  0 -1
                       0 -1  0   1  0  0   0  0  1       0 -1  0   1  0  0   0  0  1
                       0 -1  0   1  0  0   0  0  1       0 -1  0   1  0  0   0  0  1
                       0  0  1   1  0  0   0  1  0       0  0  1   1  0  0   0  1  0
                       0  0  1   1  0  0   0  1  0       0  0  1   1  0  0   0  1  0
                       0  0 -1  -1  0  0   0 -1  0       0  0 -1  -1  0  0   0 -1  0
                       0  0 -1  -1  0  0   0 -1  0       0  0 -1  -1  0  0   0 -1  0
                       0  0 -1   1  0  0   0 -1  0       0  0 -1   1  0  0   0 -1  0
                       0  0 -1   1  0  0   0 -1  0       0  0 -1   1  0  0   0 -1  0
                       0  0  1  -1  0  0   0  1  0       0  0  1  -1  0  0   0  1  0
                       0  0  1  -1  0  0   0  1  0       0  0  1  -1  0  0   0  1  0
                       0  0 -1  -1  0  0   0  1  0       0  0 -1  -1  0  0   0  1  0
                       0  0 -1  -1  0  0   0  1  0       0  0 -1  -1  0  0   0  1  0
                       0  0  1   1  0  0   0 -1  0       0  0  1   1  0  0   0 -1  0
                       0  0  1   1  0  0   0 -1  0       0  0  1   1  0  0   0 -1  0
                       0  0  1  -1  0  0   0 -1  0       0  0  1  -1  0  0   0 -1  0
                       0  0  1  -1  0  0   0 -1  0       0  0  1  -1  0  0   0 -1  0
                       0  0 -1   1  0  0   0  1  0       0  0 -1   1  0  0   0  1  0
                       0  0 -1   1  0  0   0  1  0       0  0 -1   1  0  0   0  1  0
                       1  0  0   0  0  1   0  1  0       1  0  0   0  0  1   0  1  0
                       1  0  0   0  0  1   0  1  0       1  0  0   0  0  1   0  1  0
                      -1  0  0   0  0 -1   0 -1  0      -1  0  0   0  0 -1   0 -1  0
                      -1  0  0   0  0 -1   0 -1  0      -1  0  0   0  0 -1   0 -1  0
                      -1  0  0   0  0  1   0 -1  0      -1  0  0   0  0  1   0 -1  0
                      -1  0  0   0  0  1   0 -1  0      -1  0  0   0  0  1   0 -1  0
                       1  0  0   0  0 -1   0  1  0       1  0  0   0  0 -1   0  1  0
                       1  0  0   0  0 -1   0  1  0       1  0  0   0  0 -1   0  1  0
                      -1  0  0   0  0 -1   0  1  0      -1  0  0   0  0 -1   0  1  0
                      -1  0  0   0  0 -1   0  1  0      -1  0  0   0  0 -1   0  1  0
                       1  0  0   0  0  1   0 -1  0       1  0  0   0  0  1   0 -1  0
                       1  0  0   0  0  1   0 -1  0       1  0  0   0  0  1   0 -1  0
                       1  0  0   0  0 -1   0 -1  0       1  0  0   0  0 -1   0 -1  0
                       1  0  0   0  0 -1   0 -1  0       1  0  0   0  0 -1   0 -1  0
                      -1  0  0   0  0  1   0  1  0      -1  0  0   0  0  1   0  1  0
                      -1  0  0   0  0  1   0  1  0      -1  0  0   0  0  1   0  1  0
                       0  1  0   0  0  1   1  0  0       0  1  0   0  0  1   1  0  0
                       0  1  0   0  0  1   1  0  0       0  1  0   0  0  1   1  0  0
                       0 -1  0   0  0 -1  -1  0  0       0 -1  0   0  0 -1  -1  0  0
                       0 -1  0   0  0 -1  -1  0  0       0 -1  0   0  0 -1  -1  0  0
                       0 -1  0   0  0  1  -1  0  0       0 -1  0   0  0  1  -1  0  0
                       0 -1  0   0  0  1  -1  0  0       0 -1  0   0  0  1  -1  0  0
                       0  1  0   0  0 -1   1  0  0       0  1  0   0  0 -1   1  0  0
                       0  1  0   0  0 -1   1  0  0       0  1  0   0  0 -1   1  0  0
                       0 -1  0   0  0 -1   1  0  0       0 -1  0   0  0 -1   1  0  0
                       0 -1  0   0  0 -1   1  0  0       0 -1  0   0  0 -1   1  0  0
                       0  1  0   0  0  1  -1  0  0       0  1  0   0  0  1  -1  0  0
                       0  1  0   0  0  1  -1  0  0       0  1  0   0  0  1  -1  0  0
                       0  1  0   0  0 -1  -1  0  0       0  1  0   0  0 -1  -1  0  0
                       0  1  0   0  0 -1  -1  0  0       0  1  0   0  0 -1  -1  0  0
                       0 -1  0   0  0  1   1  0  0       0 -1  0   0  0  1   1  0  0
                       0 -1  0   0  0  1   1  0  0       0 -1  0   0  0  1   1  0  0
                       0  0  1   0  1  0   1  0  0       0  0  1   0  1  0   1  0  0
                       0  0  1   0  1  0   1  0  0       0  0  1   0  1  0   1  0  0
                       0  0 -1   0 -1  0  -1  0  0       0  0 -1   0 -1  0  -1  0  0
                       0  0 -1   0 -1  0  -1  0  0       0  0 -1   0 -1  0  -1  0  0
                       0  0 -1   0  1  0  -1  0  0       0  0 -1   0  1  0  -1  0  0
                       0  0 -1   0  1  0  -1  0  0       0  0 -1   0  1  0  -1  0  0
                       0  0  1   0 -1  0   1  0  0       0  0  1   0 -1  0   1  0  0
                       0  0  1   0 -1  0   1  0  0       0  0  1   0 -1  0   1  0  0
                       0  0 -1   0 -1  0   1  0  0       0  0 -1   0 -1  0   1  0  0
                       0  0 -1   0 -1  0   1  0  0       0  0 -1   0 -1  0   1  0  0
                       0  0  1   0  1  0  -1  0  0       0  0  1   0  1  0  -1  0  0
                       0  0  1   0  1  0  -1  0  0       0  0  1   0  1  0  -1  0  0
                       0  0  1   0 -1  0  -1  0  0       0  0  1   0 -1  0  -1  0  0
                       0  0  1   0 -1  0  -1  0  0       0  0  1   0 -1  0  -1  0  0
                       0  0 -1   0  1  0   1  0  0       0  0 -1   0  1  0   1  0  0
                       0  0 -1   0  1  0   1  0  0       0  0 -1   0  1  0   1  0  0
            tnons      0.0000000  0.0000000  0.0000000     0.0000000  0.5000000  0.5000000
                       0.5000000  0.0000000  0.5000000     0.5000000  0.5000000  0.0000000
                       0.0000000  0.0000000  0.0000000     0.0000000  0.5000000  0.5000000
                       0.5000000  0.0000000  0.5000000     0.5000000  0.5000000  0.0000000
                       0.0000000  0.0000000  0.0000000     0.0000000  0.5000000  0.5000000
                       0.5000000  0.0000000  0.5000000     0.5000000  0.5000000  0.0000000
                       0.0000000  0.0000000  0.0000000     0.0000000  0.5000000  0.5000000
                       0.5000000  0.0000000  0.5000000     0.5000000  0.5000000  0.0000000
                       0.0000000  0.0000000  0.0000000     0.0000000  0.5000000  0.5000000
                       0.5000000  0.0000000  0.5000000     0.5000000  0.5000000  0.0000000
                       0.0000000  0.0000000  0.0000000     0.0000000  0.5000000  0.5000000
                       0.5000000  0.0000000  0.5000000     0.5000000  0.5000000  0.0000000
                       0.0000000  0.0000000  0.0000000     0.0000000  0.5000000  0.5000000
                       0.5000000  0.0000000  0.5000000     0.5000000  0.5000000  0.0000000
                       0.0000000  0.0000000  0.0000000     0.0000000  0.5000000  0.5000000
                       0.5000000  0.0000000  0.5000000     0.5000000  0.5000000  0.0000000
                       0.0000000  0.0000000  0.0000000     0.0000000  0.5000000  0.5000000
                       0.5000000  0.0000000  0.5000000     0.5000000  0.5000000  0.0000000
                       0.0000000  0.0000000  0.0000000     0.0000000  0.5000000  0.5000000
                       0.5000000  0.0000000  0.5000000     0.5000000  0.5000000  0.0000000
                       0.0000000  0.0000000  0.0000000     0.0000000  0.5000000  0.5000000
                       0.5000000  0.0000000  0.5000000     0.5000000  0.5000000  0.0000000
                       0.0000000  0.0000000  0.0000000     0.0000000  0.5000000  0.5000000
                       0.5000000  0.0000000  0.5000000     0.5000000  0.5000000  0.0000000
                       0.0000000  0.0000000  0.0000000     0.0000000  0.5000000  0.5000000
                       0.5000000  0.0000000  0.5000000     0.5000000  0.5000000  0.0000000
                       0.0000000  0.0000000  0.0000000     0.0000000  0.5000000  0.5000000
                       0.5000000  0.0000000  0.5000000     0.5000000  0.5000000  0.0000000
                       0.0000000  0.0000000  0.0000000     0.0000000  0.5000000  0.5000000
                       0.5000000  0.0000000  0.5000000     0.5000000  0.5000000  0.0000000
                       0.0000000  0.0000000  0.0000000     0.0000000  0.5000000  0.5000000
                       0.5000000  0.0000000  0.5000000     0.5000000  0.5000000  0.0000000
                       0.0000000  0.0000000  0.0000000     0.0000000  0.5000000  0.5000000
                       0.5000000  0.0000000  0.5000000     0.5000000  0.5000000  0.0000000
                       0.0000000  0.0000000  0.0000000     0.0000000  0.5000000  0.5000000
                       0.5000000  0.0000000  0.5000000     0.5000000  0.5000000  0.0000000
                       0.0000000  0.0000000  0.0000000     0.0000000  0.5000000  0.5000000
                       0.5000000  0.0000000  0.5000000     0.5000000  0.5000000  0.0000000
                       0.0000000  0.0000000  0.0000000     0.0000000  0.5000000  0.5000000
                       0.5000000  0.0000000  0.5000000     0.5000000  0.5000000  0.0000000
                       0.0000000  0.0000000  0.0000000     0.0000000  0.5000000  0.5000000
                       0.5000000  0.0000000  0.5000000     0.5000000  0.5000000  0.0000000
                       0.0000000  0.0000000  0.0000000     0.0000000  0.5000000  0.5000000
                       0.5000000  0.0000000  0.5000000     0.5000000  0.5000000  0.0000000
                       0.0000000  0.0000000  0.0000000     0.0000000  0.5000000  0.5000000
                       0.5000000  0.0000000  0.5000000     0.5000000  0.5000000  0.0000000
                       0.0000000  0.0000000  0.0000000     0.0000000  0.5000000  0.5000000
                       0.5000000  0.0000000  0.5000000     0.5000000  0.5000000  0.0000000
                       0.0000000  0.0000000  0.0000000     0.0000000  0.5000000  0.5000000
                       0.5000000  0.0000000  0.5000000     0.5000000  0.5000000  0.0000000
                       0.0000000  0.0000000  0.0000000     0.0000000  0.5000000  0.5000000
                       0.5000000  0.0000000  0.5000000     0.5000000  0.5000000  0.0000000
                       0.0000000  0.0000000  0.0000000     0.0000000  0.5000000  0.5000000
                       0.5000000  0.0000000  0.5000000     0.5000000  0.5000000  0.0000000
                       0.0000000  0.0000000  0.0000000     0.0000000  0.5000000  0.5000000
                       0.5000000  0.0000000  0.5000000     0.5000000  0.5000000  0.0000000
                       0.0000000  0.0000000  0.0000000     0.0000000  0.5000000  0.5000000
                       0.5000000  0.0000000  0.5000000     0.5000000  0.5000000  0.0000000
                       0.0000000  0.0000000  0.0000000     0.0000000  0.5000000  0.5000000
                       0.5000000  0.0000000  0.5000000     0.5000000  0.5000000  0.0000000
                       0.0000000  0.0000000  0.0000000     0.0000000  0.5000000  0.5000000
                       0.5000000  0.0000000  0.5000000     0.5000000  0.5000000  0.0000000
                       0.0000000  0.0000000  0.0000000     0.0000000  0.5000000  0.5000000
                       0.5000000  0.0000000  0.5000000     0.5000000  0.5000000  0.0000000
                       0.0000000  0.0000000  0.0000000     0.0000000  0.5000000  0.5000000
                       0.5000000  0.0000000  0.5000000     0.5000000  0.5000000  0.0000000
                       0.0000000  0.0000000  0.0000000     0.0000000  0.5000000  0.5000000
                       0.5000000  0.0000000  0.5000000     0.5000000  0.5000000  0.0000000
                       0.0000000  0.0000000  0.0000000     0.0000000  0.5000000  0.5000000
                       0.5000000  0.0000000  0.5000000     0.5000000  0.5000000  0.0000000
                       0.0000000  0.0000000  0.0000000     0.0000000  0.5000000  0.5000000
                       0.5000000  0.0000000  0.5000000     0.5000000  0.5000000  0.0000000
                       0.0000000  0.0000000  0.0000000     0.0000000  0.5000000  0.5000000
                       0.5000000  0.0000000  0.5000000     0.5000000  0.5000000  0.0000000
                       0.0000000  0.0000000  0.0000000     0.0000000  0.5000000  0.5000000
                       0.5000000  0.0000000  0.5000000     0.5000000  0.5000000  0.0000000
                       0.0000000  0.0000000  0.0000000     0.0000000  0.5000000  0.5000000
                       0.5000000  0.0000000  0.5000000     0.5000000  0.5000000  0.0000000
                       0.0000000  0.0000000  0.0000000     0.0000000  0.5000000  0.5000000
                       0.5000000  0.0000000  0.5000000     0.5000000  0.5000000  0.0000000
                       0.0000000  0.0000000  0.0000000     0.0000000  0.5000000  0.5000000
                       0.5000000  0.0000000  0.5000000     0.5000000  0.5000000  0.0000000
                       0.0000000  0.0000000  0.0000000     0.0000000  0.5000000  0.5000000
                       0.5000000  0.0000000  0.5000000     0.5000000  0.5000000  0.0000000
                       0.0000000  0.0000000  0.0000000     0.0000000  0.5000000  0.5000000
                       0.5000000  0.0000000  0.5000000     0.5000000  0.5000000  0.0000000
                       0.0000000  0.0000000  0.0000000     0.0000000  0.5000000  0.5000000
                       0.5000000  0.0000000  0.5000000     0.5000000  0.5000000  0.0000000
                       0.0000000  0.0000000  0.0000000     0.0000000  0.5000000  0.5000000
                       0.5000000  0.0000000  0.5000000     0.5000000  0.5000000  0.0000000
                       0.0000000  0.0000000  0.0000000     0.0000000  0.5000000  0.5000000
                       0.5000000  0.0000000  0.5000000     0.5000000  0.5000000  0.0000000
                       0.0000000  0.0000000  0.0000000     0.0000000  0.5000000  0.5000000
                       0.5000000  0.0000000  0.5000000     0.5000000  0.5000000  0.0000000
                       0.0000000  0.0000000  0.0000000     0.0000000  0.5000000  0.5000000
                       0.5000000  0.0000000  0.5000000     0.5000000  0.5000000  0.0000000
           toldfe      1.00000000E-06 Hartree
            typat      1  1  1  1
              wtk        0.37500    0.25000    0.18750    0.18750
           xangst      0.0000000000E+00  0.0000000000E+00  0.0000000000E+00
                       0.0000000000E+00  1.9447262416E+00  1.9447262416E+00
                       1.9447262416E+00  0.0000000000E+00  1.9447262416E+00
                       1.9447262416E+00  1.9447262416E+00  0.0000000000E+00
            xcart      0.0000000000E+00  0.0000000000E+00  0.0000000000E+00
                       0.0000000000E+00  3.6750000000E+00  3.6750000000E+00
                       3.6750000000E+00  0.0000000000E+00  3.6750000000E+00
                       3.6750000000E+00  3.6750000000E+00  0.0000000000E+00
             xred      0.0000000000E+00  0.0000000000E+00  0.0000000000E+00
                       0.0000000000E+00  5.0000000000E-01  5.0000000000E-01
                       5.0000000000E-01  0.0000000000E+00  5.0000000000E-01
                       5.0000000000E-01  5.0000000000E-01  0.0000000000E+00
            znucl       46.00000

================================================================================

 chkinp: Checking input parameters for consistency.
 DATA TYPE INFORMATION: 
 REAL:      Data type name: REAL(DP) 
            Kind value:      8
            Precision:      15
            Smallest nonnegligible quantity relative to 1:  0.22204460E-15
            Smallest positive number:                       0.22250739-307
            Largest representable number:                   0.17976931+309
 INTEGER:   Data type name: INTEGER(default) 
            Kind value: 4
            Bit size:   32
            Largest representable number: 2147483647
 LOGICAL:   Data type name: LOGICAL 
            Kind value: 4
 CHARACTER: Data type name: CHARACTER             Kind value: 1

  ==== OpenMP parallelism is OFF ====
 
  MPI-IO support is OFF

================================================================================
== DATASET  1 ==================================================================
-   nproc =    1


 getdim_nloc : deduce lmnmax  =  18, lnmax  =   6,
                      lmnmaxso=  18, lnmaxso=   6.
 Exchange-correlation functional for the present dataset will be:
  GGA: Perdew-Burke-Ernzerhof functional - ixc=11
 Citation for XC functional:
  J.P.Perdew, K.Burke, M.Ernzerhof, PRL 77, 3865 (1996)

 Unit cell volume ucvol=  3.9706538E+02 bohr^3
 Angles (23,13,12)=  9.00000000E+01  9.00000000E+01  9.00000000E+01 degrees

 getcut: wavevector=  0.0000  0.0000  0.0000  ngfft=  20  20  20
         ecut(hartree)=      8.000   => boxcut(ratio)=   2.13714
- pspini: atom type   1  psp file is ../../../Psps_for_tests/Pd.psp8
- pspatm: opening atomic psp file    ../../../Psps_for_tests/Pd.psp8
- Pd    ONCVPSP-3.2.3.1  r_core=   1.41052   1.46191   1.55175
- 46.00000  18.00000    170510                znucl, zion, pspdat
    8   11    2    4       600   0.00000      pspcod,pspxc,lmax,lloc,mmax,r2well
    5.99000000000000    7.00000000000000    0.00000000000000   rchrg,fchrg,qchrg
     nproj     2     2     2
     extension_switch     1
 valence charge integrates to:    17.981740865694604     
  pspatm : epsatm=   26.09224486
         --- l  ekb(1:nproj) -->
             0    7.845850   -2.282160
             1    3.261104   -0.686948
             2   -1.134855   -0.401224
 pspatm: atomic psp has been read  and splines computed

   7.51456652E+03                                ecore*ucvol(ha*bohr**3)
 ==== Info on pseudopotentials ====
  Norm-conserving pseudopotentials
  Number of pseudopotentials ..    1
  Number of types of atoms   ..    1
  Scalar calculation (no spin-orbit term)
  Nonlocal part applied using Legendre polynomials
  Max number of non-local projectors over l and type   2
  Highest angular momentum +1 .......   3
  Max number of (l,n)   components ..   6
  Max number of (l,m,n) components ..   6

 Pseudo-Core Charge Info: 
   Number of radial points for pseudo-core charge .. 2501
   XC core-correction treatment (optnlxccc) ........    1
   Radius for pseudo-core charge for each type ..... 

  - Atom type    1 has pseudo-core radius ..  5.9900

 Info on the Q-grid used for form factors in spline form: 
   Number of q-points for radial functions ffspl ..   3001
   Number of q-points for vlspl ...................   3001
   vloc is computed in Reciprocal Space
   model core charge treated in real-space

  XC functional for type 1 is 11
  Pseudo valence available: yes

 wfconv:    37 bands initialized randomly with npw=   438, for ikpt=     1
 wfconv:    37 bands initialized randomly with npw=   431, for ikpt=     2
 wfconv:    37 bands initialized randomly with npw=   429, for ikpt=     3
 wfconv:    37 bands initialized randomly with npw=   420, for ikpt=     4
_setup2: Arith. and geom. avg. npw (full set) are     431.188     431.139
 initro: for itypat=  1, take pseudo charge density from pp file

================================================================================

 getcut: wavevector=  0.0000  0.0000  0.0000  ngfft=  20  20  20
         ecut(hartree)=      8.000   => boxcut(ratio)=   2.13714

 ITER STEP NUMBER     1
 vtorho : nnsclo_now=2, note that nnsclo,dbl_nnsclo,istep=0 0 1
 non-scf iterations; kpt #     1  , k= ( -0.25000  0.50000  0.00000  ), band residuals:
 res:  1.57E+00  1.64E+00  1.53E+00  1.49E+00  1.80E+00  1.43E+00  1.35E+00  1.63E+00
 res:  1.58E+00  1.55E+00  1.51E+00  1.32E+00  1.53E+00  1.13E+00  1.24E+00  1.39E+00
 res:  1.09E+00  1.31E+00  1.15E+00  1.12E+00  1.04E+00  8.83E-01  1.21E+00  8.56E-01
 res:  8.06E-01  6.89E-01  5.92E-01  6.53E-01  1.34E+00  6.70E-01  7.55E-01  6.64E-01
 res:  7.60E-01  5.41E-01  5.58E-01  6.14E-01  6.44E-01
 ene: -2.27E+00 -2.21E+00 -2.16E+00 -2.10E+00 -1.09E+00 -1.08E+00 -1.06E+00 -1.05E+00
 ene: -1.03E+00 -1.00E+00 -9.91E-01 -9.74E-01 -9.60E-01 -9.35E-01 -8.82E-01 -8.54E-01
 ene:  4.19E-01  4.66E-01  5.53E-01  5.59E-01  5.82E-01  5.99E-01  6.21E-01  6.65E-01
 ene:  6.79E-01  6.96E-01  7.32E-01  7.66E-01  7.83E-01  8.25E-01  8.78E-01  9.06E-01
 ene:  9.50E-01  9.95E-01  1.08E+00  1.12E+00  1.21E+00
 res:  2.68E-03  6.12E-03  1.08E-02  1.80E-02  1.14E-03  1.71E-03  2.62E-03  2.57E-03
 res:  4.14E-03  5.56E-03  7.19E-03  8.92E-03  9.39E-03  1.20E-02  1.74E-02  1.65E-02
 res:  3.13E-03  7.91E-03  3.27E-03  5.17E-03  3.26E-03  7.65E-03  6.99E-03  7.21E-03
 res:  9.84E-03  1.45E-02  1.10E-02  2.23E-02  9.82E-03  1.39E-02  1.35E-02  1.77E-02
 res:  1.91E-02  2.42E-02  1.80E-02  1.76E-02  2.40E-02
 ene: -2.33E+00 -2.33E+00 -2.33E+00 -2.33E+00 -1.13E+00 -1.13E+00 -1.12E+00 -1.12E+00
 ene: -1.12E+00 -1.12E+00 -1.12E+00 -1.12E+00 -1.12E+00 -1.11E+00 -1.11E+00 -1.11E+00
 ene:  3.68E-01  3.69E-01  4.89E-01  4.90E-01  5.26E-01  5.29E-01  5.57E-01  5.59E-01
 ene:  5.67E-01  5.70E-01  6.19E-01  6.24E-01  7.23E-01  7.27E-01  7.32E-01  7.39E-01
 ene:  7.48E-01  7.53E-01  8.66E-01  8.71E-01  9.00E-01
 vtowfk : number of one-way 3D ffts skipped in vtowfk until now =1
     eigenvalues (hartree) for   37  bands
              after    3 non-SCF iterations with    4 CG line minimizations
 -2.3304E+00 -2.3290E+00 -2.3269E+00 -2.3262E+00 -1.1327E+00 -1.1319E+00
 -1.1242E+00 -1.1236E+00 -1.1205E+00 -1.1202E+00 -1.1169E+00 -1.1164E+00
 -1.1151E+00 -1.1141E+00 -1.1083E+00 -1.1075E+00  3.6752E-01  3.6915E-01
  4.8896E-01  4.8995E-01  5.2579E-01  5.2879E-01  5.5723E-01  5.5904E-01
  5.6726E-01  5.6994E-01  6.1947E-01  6.2421E-01  7.2342E-01  7.2744E-01
  7.3226E-01  7.3851E-01  7.4784E-01  7.5269E-01  8.6612E-01  8.7089E-01
  8.9988E-01
 non-scf iterations; kpt #     2  , k= ( -0.25000 -0.25000  0.25000  ), band residuals:
 res:  1.54E+00  1.60E+00  1.46E+00  1.77E+00  1.36E+00  1.69E+00  1.53E+00  1.44E+00
 res:  1.37E+00  1.19E+00  1.25E+00  1.41E+00  1.27E+00  1.36E+00  1.48E+00  1.28E+00
 res:  1.54E+00  1.21E+00  1.02E+00  1.10E+00  8.08E-01  9.93E-01  1.02E+00  8.90E-01
 res:  8.75E-01  8.06E-01  7.90E-01  7.31E-01  9.68E-01  6.34E-01  8.76E-01  7.94E-01
 res:  8.53E-01  5.49E-01  6.25E-01  4.05E-01  6.25E-01
 ene: -2.24E+00 -2.20E+00 -2.17E+00 -2.14E+00 -1.11E+00 -1.07E+00 -1.06E+00 -1.04E+00
 ene: -1.02E+00 -1.01E+00 -9.79E-01 -9.67E-01 -9.22E-01 -9.04E-01 -8.85E-01 -8.35E-01
 ene:  3.66E-01  4.84E-01  5.06E-01  5.46E-01  5.83E-01  6.03E-01  6.14E-01  6.37E-01
 ene:  6.68E-01  6.85E-01  7.08E-01  7.64E-01  7.93E-01  8.69E-01  8.78E-01  9.56E-01
 ene:  9.84E-01  1.02E+00  1.09E+00  1.13E+00  1.24E+00
 res:  3.65E-03  7.30E-03  9.66E-03  1.61E-02  5.09E-04  1.79E-03  3.11E-03  3.81E-03
 res:  6.03E-03  5.90E-03  8.33E-03  9.14E-03  1.05E-02  1.28E-02  1.36E-02  1.45E-02
 res:  3.25E-03  2.74E-03  3.72E-03  7.65E-03  5.27E-03  7.16E-03  8.37E-03  3.49E-03
 res:  8.69E-03  8.27E-03  8.76E-03  1.05E-02  1.08E-02  1.56E-02  1.18E-02  1.55E-02
 res:  2.45E-02  2.16E-02  1.78E-02  1.64E-02  2.82E-02
 ene: -2.33E+00 -2.33E+00 -2.33E+00 -2.33E+00 -1.12E+00 -1.12E+00 -1.12E+00 -1.12E+00
 ene: -1.12E+00 -1.12E+00 -1.11E+00 -1.11E+00 -1.11E+00 -1.10E+00 -1.10E+00 -1.09E+00
 ene:  3.23E-01  4.46E-01  4.46E-01  4.52E-01  5.18E-01  5.19E-01  5.22E-01  5.99E-01
 ene:  6.01E-01  6.02E-01  6.06E-01  6.73E-01  6.76E-01  7.34E-01  7.36E-01  7.41E-01
 ene:  8.01E-01  8.05E-01  8.95E-01  9.04E-01  9.27E-01
 vtowfk : number of one-way 3D ffts skipped in vtowfk until now =2
     eigenvalues (hartree) for   37  bands
              after    3 non-SCF iterations with    4 CG line minimizations
 -2.3296E+00 -2.3270E+00 -2.3268E+00 -2.3263E+00 -1.1250E+00 -1.1248E+00
 -1.1245E+00 -1.1189E+00 -1.1182E+00 -1.1178E+00 -1.1125E+00 -1.1122E+00
 -1.1107E+00 -1.1025E+00 -1.1017E+00 -1.0919E+00  3.2286E-01  4.4566E-01
  4.4636E-01  4.5215E-01  5.1841E-01  5.1906E-01  5.2194E-01  5.9904E-01
  6.0051E-01  6.0197E-01  6.0566E-01  6.7309E-01  6.7563E-01  7.3406E-01
  7.3579E-01  7.4053E-01  8.0138E-01  8.0482E-01  8.9462E-01  9.0394E-01
  9.2667E-01
 non-scf iterations; kpt #     3  , k= ( -0.25000  0.00000  0.00000  ), band residuals:
 res:  1.66E+00  1.32E+00  1.11E+00  1.47E+00  1.29E+00  1.61E+00  1.77E+00  1.16E+00
 res:  1.17E+00  1.77E+00  1.19E+00  1.40E+00  1.61E+00  1.59E+00  1.37E+00  1.55E+00
 res:  1.44E+00  1.20E+00  1.29E+00  1.40E+00  9.11E-01  9.37E-01  5.49E-01  1.45E+00
 res:  1.49E+00  7.05E-01  1.14E+00  8.36E-01  4.63E-01  5.25E-01  1.07E+00  1.19E+00
 res:  8.40E-01  5.92E-01  5.03E-01  5.64E-01  5.21E-01
 ene: -2.26E+00 -2.22E+00 -2.18E+00 -2.13E+00 -1.10E+00 -1.09E+00 -1.08E+00 -1.05E+00
 ene: -1.05E+00 -1.02E+00 -1.00E+00 -9.70E-01 -9.29E-01 -9.17E-01 -8.78E-01 -8.58E-01
 ene:  3.42E-01  4.54E-01  5.18E-01  5.40E-01  5.67E-01  5.99E-01  6.28E-01  6.90E-01
 ene:  7.02E-01  7.30E-01  7.64E-01  7.82E-01  8.22E-01  8.66E-01  9.11E-01  9.37E-01
 ene:  9.67E-01  9.97E-01  1.10E+00  1.20E+00  1.26E+00
 res:  2.81E-03  4.52E-03  1.02E-02  1.20E-02  1.15E-03  1.52E-03  2.39E-03  3.20E-03
 res:  3.52E-03  4.25E-03  5.80E-03  6.69E-03  1.15E-02  1.14E-02  1.50E-02  1.43E-02
 res:  5.03E-03  2.79E-03  4.06E-03  7.42E-03  7.42E-03  7.23E-03  1.02E-02  6.77E-03
 res:  8.15E-03  9.84E-03  1.04E-02  1.23E-02  1.45E-02  1.51E-02  1.01E-02  1.52E-02
 res:  1.59E-02  1.42E-02  2.26E-02  3.48E-02  2.76E-02
 ene: -2.33E+00 -2.33E+00 -2.32E+00 -2.32E+00 -1.14E+00 -1.14E+00 -1.12E+00 -1.12E+00
 ene: -1.12E+00 -1.11E+00 -1.11E+00 -1.11E+00 -1.11E+00 -1.10E+00 -1.10E+00 -1.08E+00
 ene:  2.74E-01  4.02E-01  4.49E-01  4.50E-01  4.87E-01  5.18E-01  5.23E-01  6.19E-01
 ene:  6.24E-01  6.26E-01  6.29E-01  6.78E-01  6.81E-01  7.57E-01  7.99E-01  8.05E-01
 ene:  8.12E-01  8.39E-01  8.71E-01  9.18E-01  9.80E-01
 vtowfk : number of one-way 3D ffts skipped in vtowfk until now =3
     eigenvalues (hartree) for   37  bands
              after    3 non-SCF iterations with    4 CG line minimizations
 -2.3321E+00 -2.3291E+00 -2.3236E+00 -2.3232E+00 -1.1381E+00 -1.1378E+00
 -1.1249E+00 -1.1245E+00 -1.1217E+00 -1.1119E+00 -1.1115E+00 -1.1096E+00
 -1.1092E+00 -1.0983E+00 -1.0975E+00 -1.0782E+00  2.7360E-01  4.0238E-01
  4.4876E-01  4.4957E-01  4.8732E-01  5.1820E-01  5.2340E-01  6.1941E-01
  6.2405E-01  6.2606E-01  6.2894E-01  6.7797E-01  6.8116E-01  7.5732E-01
  7.9947E-01  8.0468E-01  8.1218E-01  8.3916E-01  8.7129E-01  9.1772E-01
  9.8043E-01
 non-scf iterations; kpt #     4  , k= (  0.50000  0.50000  0.25000  ), band residuals:
 res:  1.45E+00  1.98E+00  1.37E+00  1.72E+00  1.36E+00  1.66E+00  1.25E+00  1.81E+00
 res:  1.48E+00  1.39E+00  1.33E+00  1.39E+00  1.20E+00  1.36E+00  1.60E+00  1.18E+00
 res:  1.49E+00  1.14E+00  1.42E+00  9.25E-01  1.15E+00  8.47E-01  1.03E+00  7.32E-01
 res:  1.18E+00  9.48E-01  6.61E-01  8.20E-01  6.29E-01  6.74E-01  6.80E-01  7.23E-01
 res:  9.19E-01  6.22E-01  7.47E-01  6.17E-01  9.73E-01
 ene: -2.24E+00 -2.20E+00 -2.17E+00 -2.12E+00 -1.07E+00 -1.06E+00 -1.04E+00 -1.03E+00
 ene: -1.01E+00 -9.96E-01 -9.67E-01 -9.44E-01 -9.20E-01 -8.83E-01 -8.58E-01 -7.76E-01
 ene:  4.65E-01  4.85E-01  5.07E-01  5.39E-01  6.17E-01  6.25E-01  6.48E-01  6.83E-01
 ene:  6.97E-01  7.28E-01  7.44E-01  7.67E-01  7.78E-01  8.25E-01  8.64E-01  8.88E-01
 ene:  9.94E-01  1.02E+00  1.08E+00  1.13E+00  1.22E+00
 res:  4.30E-03  6.07E-03  1.17E-02  1.71E-02  1.66E-03  2.56E-03  3.72E-03  5.20E-03
 res:  4.42E-03  6.24E-03  7.12E-03  8.06E-03  1.04E-02  9.80E-03  1.69E-02  2.10E-02
 res:  3.12E-03  3.90E-03  7.48E-03  1.09E-02  7.48E-03  6.05E-03  8.02E-03  8.35E-03
 res:  7.91E-03  7.29E-03  1.07E-02  7.99E-03  1.23E-02  1.30E-02  1.72E-02  2.11E-02
 res:  1.46E-02  1.62E-02  1.87E-02  3.21E-02  2.63E-02
 ene: -2.33E+00 -2.33E+00 -2.33E+00 -2.33E+00 -1.12E+00 -1.12E+00 -1.12E+00 -1.12E+00
 ene: -1.10E+00 -1.09E+00 -1.09E+00 -1.09E+00 -1.09E+00 -1.09E+00 -1.09E+00 -1.09E+00
 ene:  4.24E-01  4.25E-01  4.28E-01  4.29E-01  5.47E-01  5.47E-01  5.49E-01  5.52E-01
 ene:  6.28E-01  6.28E-01  6.30E-01  6.31E-01  6.77E-01  6.77E-01  6.78E-01  6.81E-01
 ene:  8.54E-01  8.56E-01  8.61E-01  8.87E-01  9.50E-01
 vtowfk : number of one-way 3D ffts skipped in vtowfk until now =4
     eigenvalues (hartree) for   37  bands
              after    3 non-SCF iterations with    4 CG line minimizations
 -2.3266E+00 -2.3264E+00 -2.3259E+00 -2.3255E+00 -1.1206E+00 -1.1204E+00
 -1.1203E+00 -1.1196E+00 -1.0951E+00 -1.0948E+00 -1.0941E+00 -1.0932E+00
 -1.0890E+00 -1.0889E+00 -1.0883E+00 -1.0878E+00  4.2416E-01  4.2491E-01
  4.2833E-01  4.2934E-01  5.4683E-01  5.4747E-01  5.4925E-01  5.5179E-01
  6.2774E-01  6.2806E-01  6.3003E-01  6.3051E-01  6.7666E-01  6.7698E-01
  6.7833E-01  6.8098E-01  8.5359E-01  8.5632E-01  8.6068E-01  8.8703E-01
  9.5050E-01
 Total charge density [el/Bohr^3]
      Maximum=    1.0397E+00  at reduced coord.    0.5000    0.5000    0.9000
      Minimum=    4.4771E-02  at reduced coord.    0.5000    0.0000    0.0000
   Integrated=    7.2000E+01
 ETOT  1  -517.10250409277    -5.171E+02 3.484E-02 1.951E+03
 scprqt: <Vxc>= -5.6751419E-01 hartree

Simple mixing update:
  residual square of the potential :   1147.8083900654624
 scfcv: previous iteration took 00 [s]

 ITER STEP NUMBER     2
 vtorho : nnsclo_now=2, note that nnsclo,dbl_nnsclo,istep=0 0 2
 non-scf iterations; kpt #     1  , k= ( -0.25000  0.50000  0.00000  ), band residuals:
 res:  5.96E-02  5.99E-02  3.89E-02  4.01E-02  7.42E-03  8.41E-03  4.33E-02  4.40E-02
 res:  3.07E-02  3.05E-02  1.16E-02  1.16E-02  2.35E-02  2.50E-02  1.68E-02  1.53E-02
 res:  8.79E-02  8.80E-02  4.53E-02  4.34E-02  2.35E-02  2.98E-02  6.42E-03  9.90E-03
 res:  2.41E-02  2.32E-02  6.31E-03  5.82E-03  1.16E-02  1.15E-02  8.44E-03  8.71E-03
 res:  4.33E-03  5.12E-03  1.32E-02  1.36E-02  3.58E-02
 ene: -3.50E+00 -3.50E+00 -3.50E+00 -3.49E+00 -2.09E+00 -2.09E+00 -2.06E+00 -2.06E+00
 ene: -2.06E+00 -2.06E+00 -2.06E+00 -2.06E+00 -2.06E+00 -2.06E+00 -2.04E+00 -2.04E+00
 ene:  2.51E-01  2.52E-01  2.62E-01  2.62E-01  2.84E-01  2.85E-01  3.00E-01  3.00E-01
 ene:  3.09E-01  3.09E-01  3.16E-01  3.22E-01  3.58E-01  3.59E-01  3.72E-01  3.74E-01
 ene:  3.96E-01  3.97E-01  4.27E-01  4.37E-01  4.66E-01
 res:  2.71E-06  2.84E-05  1.11E-05  3.26E-05  3.31E-06  6.37E-06  2.42E-06  2.98E-06
 res:  8.04E-07  5.16E-07  4.63E-05  4.09E-05  2.39E-05  2.69E-05  4.88E-06  3.15E-06
 res:  1.44E-05  5.28E-05  4.17E-06  4.10E-06  4.27E-05  2.55E-04  2.70E-06  8.63E-05
 res:  8.62E-06  2.55E-05  1.13E-04  3.31E-04  4.07E-05  9.70E-05  1.57E-05  3.10E-04
 res:  7.83E-05  1.40E-04  2.32E-04  8.85E-04  4.78E-04
 ene: -3.50E+00 -3.50E+00 -3.50E+00 -3.50E+00 -2.09E+00 -2.09E+00 -2.06E+00 -2.06E+00
 ene: -2.06E+00 -2.06E+00 -2.06E+00 -2.06E+00 -2.06E+00 -2.06E+00 -2.04E+00 -2.04E+00
 ene:  2.50E-01  2.50E-01  2.62E-01  2.62E-01  2.83E-01  2.83E-01  2.99E-01  2.99E-01
 ene:  3.09E-01  3.09E-01  3.12E-01  3.12E-01  3.57E-01  3.58E-01  3.72E-01  3.72E-01
 ene:  3.95E-01  3.95E-01  4.23E-01  4.29E-01  4.61E-01
 vtowfk : number of one-way 3D ffts skipped in vtowfk until now =5
     eigenvalues (hartree) for   37  bands
              after    3 non-SCF iterations with    4 CG line minimizations
 -3.4997E+00 -3.4997E+00 -3.4974E+00 -3.4974E+00 -2.0897E+00 -2.0897E+00
 -2.0636E+00 -2.0636E+00 -2.0600E+00 -2.0600E+00 -2.0598E+00 -2.0598E+00
 -2.0576E+00 -2.0576E+00 -2.0423E+00 -2.0423E+00  2.5044E-01  2.5044E-01
  2.6176E-01  2.6176E-01  2.8260E-01  2.8265E-01  2.9944E-01  2.9945E-01
  3.0863E-01  3.0867E-01  3.1180E-01  3.1183E-01  3.5738E-01  3.5757E-01
  3.7201E-01  3.7229E-01  3.9483E-01  3.9541E-01  4.2293E-01  4.2915E-01
  4.6069E-01
 non-scf iterations; kpt #     2  , k= ( -0.25000 -0.25000  0.25000  ), band residuals:
 res:  6.87E-02  4.24E-02  3.71E-02  3.49E-02  6.68E-02  7.91E-02  6.84E-02  6.22E-03
 res:  6.48E-03  7.06E-03  1.89E-02  1.98E-02  1.78E-02  2.48E-03  2.65E-03  3.26E-02
 res:  8.65E-02  5.90E-02  5.86E-02  5.77E-02  2.93E-02  3.20E-02  3.38E-02  3.84E-02
 res:  2.76E-02  2.90E-02  3.17E-02  1.56E-03  1.18E-03  5.27E-03  5.55E-03  6.62E-03
 res:  1.95E-03  4.54E-03  6.47E-02  2.79E-02  3.72E-02
 ene: -3.50E+00 -3.50E+00 -3.50E+00 -3.49E+00 -2.07E+00 -2.07E+00 -2.07E+00 -2.05E+00
 ene: -2.05E+00 -2.05E+00 -2.05E+00 -2.05E+00 -2.05E+00 -2.05E+00 -2.05E+00 -2.01E+00
 ene:  2.31E-01  2.32E-01  2.33E-01  2.52E-01  3.00E-01  3.02E-01  3.07E-01  3.18E-01
 ene:  3.19E-01  3.58E-01  3.62E-01  3.64E-01  3.68E-01  3.75E-01  3.75E-01  3.77E-01
 ene:  4.07E-01  4.08E-01  4.38E-01  4.61E-01  6.24E-01
 res:  3.19E-06  1.24E-05  1.58E-05  2.84E-05  9.66E-07  1.22E-06  1.64E-06  4.22E-05
 res:  8.25E-05  7.54E-05  1.67E-05  4.07E-05  1.09E-04  3.35E-07  2.37E-06  5.41E-06
 res:  2.73E-05  6.88E-05  8.73E-05  5.20E-06  1.30E-04  1.68E-04  2.57E-04  7.91E-06
 res:  3.50E-05  3.28E-04  3.94E-04  4.86E-04  2.79E-05  8.70E-06  4.09E-05  2.32E-04
 res:  6.58E-05  1.32E-04  3.94E-04  2.13E-03  2.36E-02
 ene: -3.50E+00 -3.50E+00 -3.50E+00 -3.50E+00 -2.07E+00 -2.07E+00 -2.07E+00 -2.06E+00
 ene: -2.06E+00 -2.06E+00 -2.05E+00 -2.05E+00 -2.05E+00 -2.05E+00 -2.05E+00 -2.01E+00
 ene:  2.30E-01  2.30E-01  2.30E-01  2.51E-01  2.97E-01  2.97E-01  2.97E-01  3.18E-01
 ene:  3.18E-01  3.52E-01  3.52E-01  3.52E-01  3.68E-01  3.74E-01  3.74E-01  3.75E-01
 ene:  4.06E-01  4.06E-01  4.33E-01  4.34E-01  5.22E-01
 vtowfk : number of one-way 3D ffts skipped in vtowfk until now =6
     eigenvalues (hartree) for   37  bands
              after    3 non-SCF iterations with    4 CG line minimizations
 -3.4997E+00 -3.4977E+00 -3.4977E+00 -3.4977E+00 -2.0669E+00 -2.0669E+00
 -2.0669E+00 -2.0567E+00 -2.0567E+00 -2.0567E+00 -2.0510E+00 -2.0510E+00
 -2.0510E+00 -2.0457E+00 -2.0457E+00 -2.0137E+00  2.2983E-01  2.2983E-01
  2.2984E-01  2.5133E-01  2.9673E-01  2.9675E-01  2.9689E-01  3.1827E-01
  3.1829E-01  3.5211E-01  3.5218E-01  3.5232E-01  3.6768E-01  3.7449E-01
  3.7449E-01  3.7461E-01  4.0643E-01  4.0649E-01  4.3312E-01  4.3372E-01
  5.2201E-01
 non-scf iterations; kpt #     3  , k= ( -0.25000  0.00000  0.00000  ), band residuals:
 res:  7.90E-02  3.82E-02  2.38E-02  2.85E-02  1.27E-02  1.16E-02  7.68E-02  7.57E-02
 res:  6.56E-02  3.74E-03  4.79E-03  1.37E-02  2.42E-02  1.62E-02  1.59E-02  9.45E-03
 res:  8.55E-02  5.05E-02  1.37E-02  1.31E-02  1.27E-03  5.89E-03  9.07E-03  2.35E-02
 res:  7.32E-02  5.21E-02  6.48E-02  3.89E-03  3.37E-03  1.19E-03  1.21E-02  2.01E-02
 res:  2.16E-02  1.13E-02  5.93E-03  1.76E-02  4.17E-02
 ene: -3.50E+00 -3.50E+00 -3.49E+00 -3.49E+00 -2.10E+00 -2.10E+00 -2.06E+00 -2.06E+00
 ene: -2.05E+00 -2.05E+00 -2.04E+00 -2.04E+00 -2.04E+00 -2.03E+00 -2.03E+00 -2.00E+00
 ene:  1.72E-01  2.20E-01  2.36E-01  2.59E-01  2.59E-01  2.66E-01  2.68E-01  2.90E-01
 ene:  3.32E-01  3.32E-01  3.59E-01  3.95E-01  3.97E-01  4.06E-01  4.25E-01  4.28E-01
 ene:  4.32E-01  4.35E-01  4.46E-01  4.88E-01  5.12E-01
 res:  3.77E-06  1.64E-06  8.27E-06  1.49E-05  5.83E-06  1.05E-05  3.72E-07  4.56E-07
 res:  7.54E-06  1.05E-04  3.50E-05  1.26E-04  1.95E-04  1.53E-05  2.91E-05  4.73E-07
 res:  1.74E-06  1.75E-05  8.86E-07  1.21E-06  4.36E-06  5.11E-06  6.86E-05  1.18E-04
 res:  4.25E-06  9.26E-06  2.60E-04  1.49E-04  1.40E-04  1.02E-04  2.57E-04  1.26E-04
 res:  1.57E-04  1.66E-04  5.88E-04  1.87E-03  5.84E-05
 ene: -3.50E+00 -3.50E+00 -3.50E+00 -3.50E+00 -2.10E+00 -2.10E+00 -2.06E+00 -2.06E+00
 ene: -2.06E+00 -2.06E+00 -2.05E+00 -2.05E+00 -2.05E+00 -2.03E+00 -2.03E+00 -2.00E+00
 ene:  1.71E-01  2.18E-01  2.36E-01  2.58E-01  2.58E-01  2.66E-01  2.66E-01  2.86E-01
 ene:  3.32E-01  3.32E-01  3.56E-01  3.93E-01  3.97E-01  4.03E-01  4.03E-01  4.27E-01
 ene:  4.29E-01  4.32E-01  4.34E-01  4.51E-01  5.11E-01
 vtowfk : number of one-way 3D ffts skipped in vtowfk until now =7
     eigenvalues (hartree) for   37  bands
              after    3 non-SCF iterations with    4 CG line minimizations
 -3.5004E+00 -3.4986E+00 -3.4959E+00 -3.4959E+00 -2.0971E+00 -2.0971E+00
 -2.0621E+00 -2.0621E+00 -2.0556E+00 -2.0556E+00 -2.0528E+00 -2.0452E+00
 -2.0452E+00 -2.0283E+00 -2.0283E+00 -2.0027E+00  1.7144E-01  2.1829E-01
  2.3625E-01  2.5850E-01  2.5850E-01  2.6576E-01  2.6579E-01  2.8574E-01
  3.3185E-01  3.3185E-01  3.5624E-01  3.9323E-01  3.9671E-01  4.0301E-01
  4.0324E-01  4.2662E-01  4.2912E-01  4.3205E-01  4.3405E-01  4.5061E-01
  5.1056E-01
 non-scf iterations; kpt #     4  , k= (  0.50000  0.50000  0.25000  ), band residuals:
 res:  4.43E-02  4.65E-02  4.29E-02  4.61E-02  7.04E-02  7.03E-02  7.17E-02  7.00E-02
 res:  1.79E-03  2.34E-03  2.16E-03  2.21E-03  9.14E-03  8.63E-03  9.75E-03  9.08E-03
 res:  6.36E-02  6.62E-02  6.26E-02  6.60E-02  5.95E-02  5.86E-02  5.85E-02  5.92E-02
 res:  8.89E-03  8.78E-03  8.67E-03  8.64E-03  1.73E-03  1.76E-03  1.85E-03  1.27E-03
 res:  1.53E-03  2.85E-03  4.07E-03  9.32E-03  2.26E-02
 ene: -3.50E+00 -3.50E+00 -3.50E+00 -3.50E+00 -2.05E+00 -2.04E+00 -2.04E+00 -2.04E+00
 ene: -2.03E+00 -2.03E+00 -2.03E+00 -2.03E+00 -2.02E+00 -2.02E+00 -2.02E+00 -2.01E+00
 ene:  2.54E-01  2.55E-01  2.56E-01  2.57E-01  3.17E-01  3.17E-01  3.17E-01  3.18E-01
 ene:  3.54E-01  3.54E-01  3.54E-01  3.54E-01  4.16E-01  4.22E-01  4.23E-01  4.26E-01
 ene:  4.26E-01  4.40E-01  4.47E-01  4.66E-01  5.55E-01
 res:  8.21E-06  1.94E-05  2.19E-05  2.79E-05  2.59E-05  7.38E-05  7.81E-05  8.30E-05
 res:  4.25E-07  4.34E-07  9.99E-07  1.13E-06  2.13E-06  1.24E-05  1.35E-05  1.63E-05
 res:  5.65E-05  9.27E-05  1.70E-04  1.29E-04  4.19E-06  9.04E-06  6.33E-05  1.29E-04
 res:  2.64E-06  5.45E-06  4.80E-05  8.64E-05  3.49E-05  2.43E-04  3.89E-04  1.71E-05
 res:  1.28E-05  2.14E-03  2.33E-03  4.49E-03  7.31E-05
 ene: -3.50E+00 -3.50E+00 -3.50E+00 -3.50E+00 -2.05E+00 -2.05E+00 -2.05E+00 -2.05E+00
 ene: -2.03E+00 -2.03E+00 -2.03E+00 -2.03E+00 -2.02E+00 -2.02E+00 -2.02E+00 -2.02E+00
 ene:  2.51E-01  2.51E-01  2.51E-01  2.51E-01  3.17E-01  3.17E-01  3.17E-01  3.17E-01
 ene:  3.53E-01  3.53E-01  3.53E-01  3.53E-01  4.15E-01  4.15E-01  4.15E-01  4.15E-01
 ene:  4.25E-01  4.25E-01  4.26E-01  4.26E-01  5.52E-01
 vtowfk : number of one-way 3D ffts skipped in vtowfk until now =8
     eigenvalues (hartree) for   37  bands
              after    3 non-SCF iterations with    4 CG line minimizations
 -3.4978E+00 -3.4978E+00 -3.4978E+00 -3.4978E+00 -2.0484E+00 -2.0484E+00
 -2.0484E+00 -2.0484E+00 -2.0306E+00 -2.0306E+00 -2.0306E+00 -2.0306E+00
 -2.0155E+00 -2.0155E+00 -2.0155E+00 -2.0155E+00  2.5112E-01  2.5113E-01
  2.5114E-01  2.5114E-01  3.1688E-01  3.1688E-01  3.1689E-01  3.1690E-01
  3.5348E-01  3.5348E-01  3.5348E-01  3.5350E-01  4.1472E-01  4.1508E-01
  4.1517E-01  4.1546E-01  4.2538E-01  4.2540E-01  4.2553E-01  4.2619E-01
  5.5229E-01
 Total charge density [el/Bohr^3]
      Maximum=    1.2536E+00  at reduced coord.    0.5000    0.5000    0.9000
      Minimum=    1.0555E-02  at reduced coord.    0.5000    0.0000    0.0000
   Integrated=    7.2000E+01
 ETOT  2  -521.38767590412    -4.285E+00 2.358E-02 3.820E+02
 scprqt: <Vxc>= -5.0251427E-01 hartree

 Pulay update with  1 previous iterations:
 mixing of old trial potential : alpha(m:m-4)=  0.697      0.303
 scfcv: previous iteration took 00 [s]

 ITER STEP NUMBER     3
 vtorho : nnsclo_now=1, note that nnsclo,dbl_nnsclo,istep=0 0 3
 non-scf iterations; kpt #     1  , k= ( -0.25000  0.50000  0.00000  ), band residuals:
 res:  2.69E-03  2.16E-03  2.93E-04  2.87E-04  3.71E-05  3.70E-05  8.40E-05  8.42E-05
 res:  4.72E-04  4.69E-04  1.84E-04  2.01E-04  1.91E-04  1.92E-04  6.51E-04  8.37E-04
 res:  1.70E-04  1.71E-04  9.79E-05  9.84E-05  6.01E-03  5.06E-03  7.00E-04  7.06E-04
 res:  2.60E-04  2.49E-04  1.07E-03  1.06E-03  6.50E-04  6.82E-04  1.16E-04  1.42E-04
 res:  3.22E-03  3.57E-03  2.76E-04  1.33E-03  5.18E-03
 ene: -3.12E+00 -3.12E+00 -3.12E+00 -3.12E+00 -1.76E+00 -1.76E+00 -1.74E+00 -1.74E+00
 ene: -1.73E+00 -1.73E+00 -1.73E+00 -1.73E+00 -1.73E+00 -1.73E+00 -1.72E+00 -1.72E+00
 ene:  3.70E-01  3.70E-01  4.10E-01  4.10E-01  4.24E-01  4.24E-01  4.44E-01  4.44E-01
 ene:  4.64E-01  4.64E-01  4.69E-01  4.69E-01  5.39E-01  5.39E-01  5.53E-01  5.53E-01
 ene:  5.58E-01  5.58E-01  6.18E-01  6.21E-01  6.39E-01
 vtowfk : number of one-way 3D ffts skipped in vtowfk until now =9
     eigenvalues (hartree) for   37  bands
              after    2 non-SCF iterations with    4 CG line minimizations
 -3.1243E+00 -3.1243E+00 -3.1219E+00 -3.1219E+00 -1.7589E+00 -1.7589E+00
 -1.7355E+00 -1.7355E+00 -1.7337E+00 -1.7337E+00 -1.7320E+00 -1.7320E+00
 -1.7311E+00 -1.7311E+00 -1.7173E+00 -1.7173E+00  3.7024E-01  3.7028E-01
  4.0982E-01  4.0983E-01  4.2391E-01  4.2391E-01  4.4373E-01  4.4373E-01
  4.6368E-01  4.6368E-01  4.6934E-01  4.6940E-01  5.3925E-01  5.3933E-01
  5.5326E-01  5.5333E-01  5.5775E-01  5.5840E-01  6.1831E-01  6.2075E-01
  6.3911E-01
 non-scf iterations; kpt #     2  , k= ( -0.25000 -0.25000  0.25000  ), band residuals:
 res:  2.95E-03  5.73E-04  6.09E-04  1.03E-03  4.93E-05  4.74E-05  4.82E-05  4.82E-04
 res:  4.91E-04  5.09E-04  1.56E-04  1.56E-04  2.15E-04  4.94E-05  4.94E-05  7.48E-04
 res:  7.61E-04  7.33E-04  7.56E-04  4.82E-03  5.05E-04  4.91E-04  5.39E-04  6.09E-05
 res:  6.41E-05  1.66E-03  1.70E-03  1.75E-03  4.25E-03  5.35E-05  5.39E-05  6.04E-05
 res:  1.19E-04  1.27E-04  2.88E-05  9.10E-05  6.83E-03
 ene: -3.12E+00 -3.12E+00 -3.12E+00 -3.12E+00 -1.74E+00 -1.74E+00 -1.74E+00 -1.73E+00
 ene: -1.73E+00 -1.73E+00 -1.72E+00 -1.72E+00 -1.72E+00 -1.72E+00 -1.72E+00 -1.69E+00
 ene:  3.29E-01  3.77E-01  3.77E-01  3.77E-01  4.38E-01  4.38E-01  4.38E-01  4.94E-01
 ene:  4.94E-01  4.97E-01  5.00E-01  5.00E-01  5.00E-01  5.53E-01  5.53E-01  5.53E-01
 ene:  5.91E-01  5.91E-01  6.36E-01  6.36E-01  6.37E-01
 vtowfk : number of one-way 3D ffts skipped in vtowfk until now =10
     eigenvalues (hartree) for   37  bands
              after    2 non-SCF iterations with    4 CG line minimizations
 -3.1242E+00 -3.1221E+00 -3.1221E+00 -3.1220E+00 -1.7384E+00 -1.7384E+00
 -1.7384E+00 -1.7311E+00 -1.7311E+00 -1.7311E+00 -1.7246E+00 -1.7246E+00
 -1.7246E+00 -1.7189E+00 -1.7189E+00 -1.6916E+00  3.2904E-01  3.7662E-01
  3.7663E-01  3.7665E-01  4.3759E-01  4.3760E-01  4.3761E-01  4.9374E-01
  4.9374E-01  4.9685E-01  4.9994E-01  4.9994E-01  5.0001E-01  5.5289E-01
  5.5289E-01  5.5289E-01  5.9054E-01  5.9055E-01  6.3593E-01  6.3594E-01
  6.3661E-01
 non-scf iterations; kpt #     3  , k= ( -0.25000  0.00000  0.00000  ), band residuals:
 res:  3.27E-03  2.00E-03  1.86E-04  1.89E-04  3.60E-05  3.45E-05  6.64E-05  6.63E-05
 res:  3.98E-04  3.99E-04  1.82E-03  2.12E-05  2.13E-05  5.24E-05  5.25E-05  2.61E-04
 res:  1.82E-05  2.09E-03  3.66E-03  1.95E-04  1.94E-04  2.90E-05  2.96E-05  7.58E-05
 res:  1.32E-04  1.34E-04  1.96E-04  8.01E-05  2.61E-04  5.43E-04  5.51E-04  5.85E-05
 res:  1.72E-04  1.22E-04  4.53E-04  2.59E-05  4.97E-03
 ene: -3.13E+00 -3.12E+00 -3.12E+00 -3.12E+00 -1.77E+00 -1.77E+00 -1.73E+00 -1.73E+00
 ene: -1.73E+00 -1.73E+00 -1.73E+00 -1.72E+00 -1.72E+00 -1.70E+00 -1.70E+00 -1.68E+00
 ene:  2.90E-01  3.40E-01  3.51E-01  3.90E-01  3.90E-01  4.14E-01  4.14E-01  4.56E-01
 ene:  5.04E-01  5.04E-01  5.51E-01  5.59E-01  5.59E-01  5.72E-01  5.88E-01  5.96E-01
 ene:  6.18E-01  6.18E-01  6.21E-01  6.25E-01  6.55E-01
 vtowfk : number of one-way 3D ffts skipped in vtowfk until now =11
     eigenvalues (hartree) for   37  bands
              after    2 non-SCF iterations with    4 CG line minimizations
 -3.1252E+00 -3.1233E+00 -3.1201E+00 -3.1201E+00 -1.7656E+00 -1.7656E+00
 -1.7335E+00 -1.7335E+00 -1.7303E+00 -1.7303E+00 -1.7275E+00 -1.7195E+00
 -1.7195E+00 -1.7041E+00 -1.7041E+00 -1.6806E+00  2.9008E-01  3.3994E-01
  3.5144E-01  3.8999E-01  3.8999E-01  4.1363E-01  4.1363E-01  4.5624E-01
  5.0436E-01  5.0437E-01  5.5112E-01  5.5876E-01  5.5878E-01  5.7181E-01
  5.8793E-01  5.9641E-01  6.1766E-01  6.1846E-01  6.2107E-01  6.2542E-01
  6.5512E-01
 non-scf iterations; kpt #     4  , k= (  0.50000  0.50000  0.25000  ), band residuals:
 res:  1.97E-03  8.26E-04  8.55E-04  8.56E-04  1.70E-03  6.51E-04  6.48E-04  6.46E-04
 res:  1.62E-05  1.59E-05  1.60E-05  1.56E-05  3.37E-04  1.52E-04  1.55E-04  1.63E-04
 res:  1.77E-03  1.19E-03  1.35E-03  1.47E-03  1.79E-04  1.80E-04  1.87E-04  1.97E-04
 res:  8.06E-05  8.05E-05  8.10E-05  8.22E-05  4.66E-03  2.88E-03  2.94E-03  3.01E-03
 res:  4.91E-05  5.00E-05  6.01E-05  1.45E-04  8.23E-03
 ene: -3.12E+00 -3.12E+00 -3.12E+00 -3.12E+00 -1.72E+00 -1.72E+00 -1.72E+00 -1.72E+00
 ene: -1.71E+00 -1.71E+00 -1.71E+00 -1.71E+00 -1.69E+00 -1.69E+00 -1.69E+00 -1.69E+00
 ene:  3.76E-01  3.76E-01  3.76E-01  3.76E-01  4.79E-01  4.79E-01  4.79E-01  4.79E-01
 ene:  5.20E-01  5.20E-01  5.20E-01  5.20E-01  5.35E-01  5.35E-01  5.35E-01  5.35E-01
 ene:  6.18E-01  6.18E-01  6.18E-01  6.18E-01  6.94E-01
 vtowfk : number of one-way 3D ffts skipped in vtowfk until now =12
     eigenvalues (hartree) for   37  bands
              after    2 non-SCF iterations with    4 CG line minimizations
 -3.1221E+00 -3.1221E+00 -3.1221E+00 -3.1221E+00 -1.7237E+00 -1.7237E+00
 -1.7237E+00 -1.7237E+00 -1.7056E+00 -1.7056E+00 -1.7056E+00 -1.7056E+00
 -1.6926E+00 -1.6926E+00 -1.6926E+00 -1.6926E+00  3.7626E-01  3.7628E-01
  3.7629E-01  3.7629E-01  4.7869E-01  4.7872E-01  4.7872E-01  4.7873E-01
  5.2011E-01  5.2011E-01  5.2011E-01  5.2011E-01  5.3462E-01  5.3504E-01
  5.3507E-01  5.3512E-01  6.1779E-01  6.1779E-01  6.1780E-01  6.1787E-01
  6.9398E-01
 Total charge density [el/Bohr^3]
      Maximum=    1.1964E+00  at reduced coord.    0.5000    0.5000    0.9000
      Minimum=    2.1445E-02  at reduced coord.    0.5000    0.0000    0.0000
   Integrated=    7.2000E+01
 ETOT  3  -522.38258663644    -9.949E-01 8.228E-03 3.050E+00
 scprqt: <Vxc>= -5.2732819E-01 hartree

 Pulay update with  2 previous iterations:
 mixing of old trial potential : alpha(m:m-4)=  0.695      0.217      0.877E-01
 scfcv: previous iteration took 00 [s]

 ITER STEP NUMBER     4
 vtorho : nnsclo_now=1, note that nnsclo,dbl_nnsclo,istep=0 0 4
 non-scf iterations; kpt #     1  , k= ( -0.25000  0.50000  0.00000  ), band residuals:
 res:  6.36E-08  5.80E-07  3.26E-08  3.35E-08  8.77E-09  8.85E-09  1.58E-08  1.60E-08
 res:  1.79E-07  1.81E-07  2.82E-08  2.78E-08  5.72E-08  5.91E-08  1.02E-07  9.41E-08
 res:  6.94E-07  4.32E-06  4.70E-07  4.66E-07  1.01E-08  2.11E-07  5.05E-07  5.95E-07
 res:  5.49E-08  2.66E-07  9.74E-08  7.21E-06  4.66E-06  1.35E-05  1.00E-07  1.05E-05
 res:  2.51E-06  1.48E-04  6.98E-07  4.02E-04  1.39E-06
 ene: -3.15E+00 -3.15E+00 -3.15E+00 -3.15E+00 -1.79E+00 -1.79E+00 -1.76E+00 -1.76E+00
 ene: -1.76E+00 -1.76E+00 -1.76E+00 -1.76E+00 -1.76E+00 -1.76E+00 -1.75E+00 -1.75E+00
 ene:  3.45E-01  3.45E-01  3.84E-01  3.84E-01  3.98E-01  3.98E-01  4.18E-01  4.18E-01
 ene:  4.38E-01  4.38E-01  4.43E-01  4.43E-01  5.13E-01  5.13E-01  5.27E-01  5.27E-01
 ene:  5.32E-01  5.32E-01  5.92E-01  5.93E-01  6.13E-01
 vtowfk : number of one-way 3D ffts skipped in vtowfk until now =13
     eigenvalues (hartree) for   37  bands
              after    2 non-SCF iterations with    4 CG line minimizations
 -3.1513E+00 -3.1513E+00 -3.1489E+00 -3.1489E+00 -1.7867E+00 -1.7867E+00
 -1.7633E+00 -1.7633E+00 -1.7615E+00 -1.7615E+00 -1.7597E+00 -1.7597E+00
 -1.7589E+00 -1.7589E+00 -1.7451E+00 -1.7451E+00  3.4546E-01  3.4546E-01
  3.8406E-01  3.8406E-01  3.9794E-01  3.9794E-01  4.1841E-01  4.1841E-01
  4.3778E-01  4.3778E-01  4.4347E-01  4.4347E-01  5.1323E-01  5.1325E-01
  5.2729E-01  5.2730E-01  5.3189E-01  5.3198E-01  5.9221E-01  5.9330E-01
  6.1317E-01
 non-scf iterations; kpt #     2  , k= ( -0.25000 -0.25000  0.25000  ), band residuals:
 res:  6.95E-08  1.13E-07  1.19E-07  2.77E-07  8.76E-09  8.76E-09  1.19E-08  2.53E-07
 res:  2.53E-07  3.41E-07  5.09E-08  5.19E-08  5.03E-08  1.07E-08  1.09E-08  9.35E-08
 res:  6.91E-07  6.19E-07  7.06E-07  2.07E-06  3.57E-07  3.82E-07  4.01E-07  2.49E-08
 res:  1.30E-07  4.00E-07  3.59E-07  3.36E-07  1.54E-06  3.31E-08  5.99E-08  2.89E-07
 res:  4.77E-07  9.39E-07  3.40E-06  4.49E-06  6.55E-05
 ene: -3.15E+00 -3.15E+00 -3.15E+00 -3.15E+00 -1.77E+00 -1.77E+00 -1.77E+00 -1.76E+00
 ene: -1.76E+00 -1.76E+00 -1.75E+00 -1.75E+00 -1.75E+00 -1.75E+00 -1.75E+00 -1.72E+00
 ene:  3.04E-01  3.51E-01  3.51E-01  3.51E-01  4.12E-01  4.12E-01  4.12E-01  4.68E-01
 ene:  4.68E-01  4.71E-01  4.74E-01  4.74E-01  4.74E-01  5.27E-01  5.27E-01  5.27E-01
 ene:  5.65E-01  5.65E-01  6.10E-01  6.10E-01  6.10E-01
 vtowfk : number of one-way 3D ffts skipped in vtowfk until now =14
     eigenvalues (hartree) for   37  bands
              after    2 non-SCF iterations with    4 CG line minimizations
 -3.1513E+00 -3.1491E+00 -3.1491E+00 -3.1491E+00 -1.7662E+00 -1.7662E+00
 -1.7662E+00 -1.7589E+00 -1.7589E+00 -1.7589E+00 -1.7524E+00 -1.7524E+00
 -1.7524E+00 -1.7466E+00 -1.7466E+00 -1.7193E+00  3.0428E-01  3.5094E-01
  3.5094E-01  3.5094E-01  4.1218E-01  4.1218E-01  4.1218E-01  4.6784E-01
  4.6784E-01  4.7132E-01  4.7414E-01  4.7414E-01  4.7414E-01  5.2706E-01
  5.2706E-01  5.2706E-01  5.6466E-01  5.6466E-01  6.0976E-01  6.0977E-01
  6.0983E-01
 non-scf iterations; kpt #     3  , k= ( -0.25000  0.00000  0.00000  ), band residuals:
 res:  4.12E-08  4.05E-08  1.18E-08  1.19E-08  8.42E-09  1.11E-08  1.46E-08  1.46E-08
 res:  2.11E-07  2.11E-07  2.60E-07  4.23E-09  4.35E-09  1.06E-08  1.25E-08  2.92E-08
 res:  1.97E-07  8.38E-09  3.67E-07  2.58E-08  5.00E-08  5.96E-09  3.18E-07  2.45E-07
 res:  3.33E-08  1.59E-06  9.64E-06  8.40E-07  4.04E-06  2.61E-05  1.35E-05  3.22E-05
 res:  2.78E-07  2.31E-05  8.02E-08  8.79E-04  8.37E-07
 ene: -3.15E+00 -3.15E+00 -3.15E+00 -3.15E+00 -1.79E+00 -1.79E+00 -1.76E+00 -1.76E+00
 ene: -1.76E+00 -1.76E+00 -1.76E+00 -1.75E+00 -1.75E+00 -1.73E+00 -1.73E+00 -1.71E+00
 ene:  2.66E-01  3.14E-01  3.26E-01  3.65E-01  3.65E-01  3.88E-01  3.88E-01  4.30E-01
 ene:  4.78E-01  4.78E-01  5.25E-01  5.33E-01  5.33E-01  5.46E-01  5.63E-01  5.70E-01
 ene:  5.92E-01  5.92E-01  5.95E-01  5.96E-01  6.29E-01
 vtowfk : number of one-way 3D ffts skipped in vtowfk until now =15
     eigenvalues (hartree) for   37  bands
              after    2 non-SCF iterations with    4 CG line minimizations
 -3.1522E+00 -3.1503E+00 -3.1471E+00 -3.1471E+00 -1.7934E+00 -1.7934E+00
 -1.7613E+00 -1.7613E+00 -1.7581E+00 -1.7581E+00 -1.7552E+00 -1.7473E+00
 -1.7473E+00 -1.7319E+00 -1.7319E+00 -1.7084E+00  2.6559E-01  3.1380E-01
  3.2622E-01  3.6492E-01  3.6492E-01  3.8778E-01  3.8778E-01  4.3030E-01
  4.7848E-01  4.7848E-01  5.2496E-01  5.3293E-01  5.3293E-01  5.4598E-01
  5.6259E-01  5.7004E-01  5.9179E-01  5.9214E-01  5.9501E-01  5.9610E-01
  6.2895E-01
 non-scf iterations; kpt #     4  , k= (  0.50000  0.50000  0.25000  ), band residuals:
 res:  5.45E-08  3.27E-07  3.31E-07  3.58E-07  3.87E-07  9.88E-07  1.01E-06  1.02E-06
 res:  2.71E-09  2.71E-09  2.77E-09  3.02E-09  5.06E-08  1.37E-07  1.39E-07  1.42E-07
 res:  4.67E-07  1.46E-06  1.53E-06  1.45E-06  9.93E-07  1.62E-06  1.76E-06  1.91E-06
 res:  5.47E-08  1.10E-07  1.25E-07  3.49E-07  2.05E-06  9.55E-06  1.03E-05  1.28E-05
 res:  3.37E-08  9.55E-07  8.45E-07  1.04E-05  2.16E-06
 ene: -3.15E+00 -3.15E+00 -3.15E+00 -3.15E+00 -1.75E+00 -1.75E+00 -1.75E+00 -1.75E+00
 ene: -1.73E+00 -1.73E+00 -1.73E+00 -1.73E+00 -1.72E+00 -1.72E+00 -1.72E+00 -1.72E+00
 ene:  3.51E-01  3.51E-01  3.51E-01  3.51E-01  4.53E-01  4.53E-01  4.53E-01  4.53E-01
 ene:  4.94E-01  4.94E-01  4.94E-01  4.94E-01  5.09E-01  5.09E-01  5.09E-01  5.09E-01
 ene:  5.92E-01  5.92E-01  5.92E-01  5.92E-01  6.68E-01
 vtowfk : number of one-way 3D ffts skipped in vtowfk until now =16
     eigenvalues (hartree) for   37  bands
              after    2 non-SCF iterations with    4 CG line minimizations
 -3.1492E+00 -3.1492E+00 -3.1492E+00 -3.1492E+00 -1.7515E+00 -1.7515E+00
 -1.7515E+00 -1.7515E+00 -1.7334E+00 -1.7334E+00 -1.7334E+00 -1.7334E+00
[...]
                       0  0 -1  -1  0  0   0 -1  0       0  0 -1  -1  0  0   0 -1  0
                       0  0 -1  -1  0  0   0 -1  0       0  0 -1  -1  0  0   0 -1  0
                       0  0 -1   1  0  0   0 -1  0       0  0 -1   1  0  0   0 -1  0
                       0  0 -1   1  0  0   0 -1  0       0  0 -1   1  0  0   0 -1  0
                       0  0  1  -1  0  0   0  1  0       0  0  1  -1  0  0   0  1  0
                       0  0  1  -1  0  0   0  1  0       0  0  1  -1  0  0   0  1  0
                       0  0 -1  -1  0  0   0  1  0       0  0 -1  -1  0  0   0  1  0
                       0  0 -1  -1  0  0   0  1  0       0  0 -1  -1  0  0   0  1  0
                       0  0  1   1  0  0   0 -1  0       0  0  1   1  0  0   0 -1  0
                       0  0  1   1  0  0   0 -1  0       0  0  1   1  0  0   0 -1  0
                       0  0  1  -1  0  0   0 -1  0       0  0  1  -1  0  0   0 -1  0
                       0  0  1  -1  0  0   0 -1  0       0  0  1  -1  0  0   0 -1  0
                       0  0 -1   1  0  0   0  1  0       0  0 -1   1  0  0   0  1  0
                       0  0 -1   1  0  0   0  1  0       0  0 -1   1  0  0   0  1  0
                       1  0  0   0  0  1   0  1  0       1  0  0   0  0  1   0  1  0
                       1  0  0   0  0  1   0  1  0       1  0  0   0  0  1   0  1  0
                      -1  0  0   0  0 -1   0 -1  0      -1  0  0   0  0 -1   0 -1  0
                      -1  0  0   0  0 -1   0 -1  0      -1  0  0   0  0 -1   0 -1  0
                      -1  0  0   0  0  1   0 -1  0      -1  0  0   0  0  1   0 -1  0
                      -1  0  0   0  0  1   0 -1  0      -1  0  0   0  0  1   0 -1  0
                       1  0  0   0  0 -1   0  1  0       1  0  0   0  0 -1   0  1  0
                       1  0  0   0  0 -1   0  1  0       1  0  0   0  0 -1   0  1  0
                      -1  0  0   0  0 -1   0  1  0      -1  0  0   0  0 -1   0  1  0
                      -1  0  0   0  0 -1   0  1  0      -1  0  0   0  0 -1   0  1  0
                       1  0  0   0  0  1   0 -1  0       1  0  0   0  0  1   0 -1  0
                       1  0  0   0  0  1   0 -1  0       1  0  0   0  0  1   0 -1  0
                       1  0  0   0  0 -1   0 -1  0       1  0  0   0  0 -1   0 -1  0
                       1  0  0   0  0 -1   0 -1  0       1  0  0   0  0 -1   0 -1  0
                      -1  0  0   0  0  1   0  1  0      -1  0  0   0  0  1   0  1  0
                      -1  0  0   0  0  1   0  1  0      -1  0  0   0  0  1   0  1  0
                       0  1  0   0  0  1   1  0  0       0  1  0   0  0  1   1  0  0
                       0  1  0   0  0  1   1  0  0       0  1  0   0  0  1   1  0  0
                       0 -1  0   0  0 -1  -1  0  0       0 -1  0   0  0 -1  -1  0  0
                       0 -1  0   0  0 -1  -1  0  0       0 -1  0   0  0 -1  -1  0  0
                       0 -1  0   0  0  1  -1  0  0       0 -1  0   0  0  1  -1  0  0
                       0 -1  0   0  0  1  -1  0  0       0 -1  0   0  0  1  -1  0  0
                       0  1  0   0  0 -1   1  0  0       0  1  0   0  0 -1   1  0  0
                       0  1  0   0  0 -1   1  0  0       0  1  0   0  0 -1   1  0  0
                       0 -1  0   0  0 -1   1  0  0       0 -1  0   0  0 -1   1  0  0
                       0 -1  0   0  0 -1   1  0  0       0 -1  0   0  0 -1   1  0  0
                       0  1  0   0  0  1  -1  0  0       0  1  0   0  0  1  -1  0  0
                       0  1  0   0  0  1  -1  0  0       0  1  0   0  0  1  -1  0  0
                       0  1  0   0  0 -1  -1  0  0       0  1  0   0  0 -1  -1  0  0
                       0  1  0   0  0 -1  -1  0  0       0  1  0   0  0 -1  -1  0  0
                       0 -1  0   0  0  1   1  0  0       0 -1  0   0  0  1   1  0  0
                       0 -1  0   0  0  1   1  0  0       0 -1  0   0  0  1   1  0  0
                       0  0  1   0  1  0   1  0  0       0  0  1   0  1  0   1  0  0
                       0  0  1   0  1  0   1  0  0       0  0  1   0  1  0   1  0  0
                       0  0 -1   0 -1  0  -1  0  0       0  0 -1   0 -1  0  -1  0  0
                       0  0 -1   0 -1  0  -1  0  0       0  0 -1   0 -1  0  -1  0  0
                       0  0 -1   0  1  0  -1  0  0       0  0 -1   0  1  0  -1  0  0
                       0  0 -1   0  1  0  -1  0  0       0  0 -1   0  1  0  -1  0  0
                       0  0  1   0 -1  0   1  0  0       0  0  1   0 -1  0   1  0  0
                       0  0  1   0 -1  0   1  0  0       0  0  1   0 -1  0   1  0  0
                       0  0 -1   0 -1  0   1  0  0       0  0 -1   0 -1  0   1  0  0
                       0  0 -1   0 -1  0   1  0  0       0  0 -1   0 -1  0   1  0  0
                       0  0  1   0  1  0  -1  0  0       0  0  1   0  1  0  -1  0  0
                       0  0  1   0  1  0  -1  0  0       0  0  1   0  1  0  -1  0  0
                       0  0  1   0 -1  0  -1  0  0       0  0  1   0 -1  0  -1  0  0
                       0  0  1   0 -1  0  -1  0  0       0  0  1   0 -1  0  -1  0  0
                       0  0 -1   0  1  0   1  0  0       0  0 -1   0  1  0   1  0  0
                       0  0 -1   0  1  0   1  0  0       0  0 -1   0  1  0   1  0  0
            tnons      0.0000000  0.0000000  0.0000000     0.0000000  0.5000000  0.5000000
                       0.5000000  0.0000000  0.5000000     0.5000000  0.5000000  0.0000000
                       0.0000000  0.0000000  0.0000000     0.0000000  0.5000000  0.5000000
                       0.5000000  0.0000000  0.5000000     0.5000000  0.5000000  0.0000000
                       0.0000000  0.0000000  0.0000000     0.0000000  0.5000000  0.5000000
                       0.5000000  0.0000000  0.5000000     0.5000000  0.5000000  0.0000000
                       0.0000000  0.0000000  0.0000000     0.0000000  0.5000000  0.5000000
                       0.5000000  0.0000000  0.5000000     0.5000000  0.5000000  0.0000000
                       0.0000000  0.0000000  0.0000000     0.0000000  0.5000000  0.5000000
                       0.5000000  0.0000000  0.5000000     0.5000000  0.5000000  0.0000000
                       0.0000000  0.0000000  0.0000000     0.0000000  0.5000000  0.5000000
                       0.5000000  0.0000000  0.5000000     0.5000000  0.5000000  0.0000000
                       0.0000000  0.0000000  0.0000000     0.0000000  0.5000000  0.5000000
                       0.5000000  0.0000000  0.5000000     0.5000000  0.5000000  0.0000000
                       0.0000000  0.0000000  0.0000000     0.0000000  0.5000000  0.5000000
                       0.5000000  0.0000000  0.5000000     0.5000000  0.5000000  0.0000000
                       0.0000000  0.0000000  0.0000000     0.0000000  0.5000000  0.5000000
                       0.5000000  0.0000000  0.5000000     0.5000000  0.5000000  0.0000000
                       0.0000000  0.0000000  0.0000000     0.0000000  0.5000000  0.5000000
                       0.5000000  0.0000000  0.5000000     0.5000000  0.5000000  0.0000000
                       0.0000000  0.0000000  0.0000000     0.0000000  0.5000000  0.5000000
                       0.5000000  0.0000000  0.5000000     0.5000000  0.5000000  0.0000000
                       0.0000000  0.0000000  0.0000000     0.0000000  0.5000000  0.5000000
                       0.5000000  0.0000000  0.5000000     0.5000000  0.5000000  0.0000000
                       0.0000000  0.0000000  0.0000000     0.0000000  0.5000000  0.5000000
                       0.5000000  0.0000000  0.5000000     0.5000000  0.5000000  0.0000000
                       0.0000000  0.0000000  0.0000000     0.0000000  0.5000000  0.5000000
                       0.5000000  0.0000000  0.5000000     0.5000000  0.5000000  0.0000000
                       0.0000000  0.0000000  0.0000000     0.0000000  0.5000000  0.5000000
                       0.5000000  0.0000000  0.5000000     0.5000000  0.5000000  0.0000000
                       0.0000000  0.0000000  0.0000000     0.0000000  0.5000000  0.5000000
                       0.5000000  0.0000000  0.5000000     0.5000000  0.5000000  0.0000000
                       0.0000000  0.0000000  0.0000000     0.0000000  0.5000000  0.5000000
                       0.5000000  0.0000000  0.5000000     0.5000000  0.5000000  0.0000000
                       0.0000000  0.0000000  0.0000000     0.0000000  0.5000000  0.5000000
                       0.5000000  0.0000000  0.5000000     0.5000000  0.5000000  0.0000000
                       0.0000000  0.0000000  0.0000000     0.0000000  0.5000000  0.5000000
                       0.5000000  0.0000000  0.5000000     0.5000000  0.5000000  0.0000000
                       0.0000000  0.0000000  0.0000000     0.0000000  0.5000000  0.5000000
                       0.5000000  0.0000000  0.5000000     0.5000000  0.5000000  0.0000000
                       0.0000000  0.0000000  0.0000000     0.0000000  0.5000000  0.5000000
                       0.5000000  0.0000000  0.5000000     0.5000000  0.5000000  0.0000000
                       0.0000000  0.0000000  0.0000000     0.0000000  0.5000000  0.5000000
                       0.5000000  0.0000000  0.5000000     0.5000000  0.5000000  0.0000000
                       0.0000000  0.0000000  0.0000000     0.0000000  0.5000000  0.5000000
                       0.5000000  0.0000000  0.5000000     0.5000000  0.5000000  0.0000000
                       0.0000000  0.0000000  0.0000000     0.0000000  0.5000000  0.5000000
                       0.5000000  0.0000000  0.5000000     0.5000000  0.5000000  0.0000000
                       0.0000000  0.0000000  0.0000000     0.0000000  0.5000000  0.5000000
                       0.5000000  0.0000000  0.5000000     0.5000000  0.5000000  0.0000000
                       0.0000000  0.0000000  0.0000000     0.0000000  0.5000000  0.5000000
                       0.5000000  0.0000000  0.5000000     0.5000000  0.5000000  0.0000000
                       0.0000000  0.0000000  0.0000000     0.0000000  0.5000000  0.5000000
                       0.5000000  0.0000000  0.5000000     0.5000000  0.5000000  0.0000000
                       0.0000000  0.0000000  0.0000000     0.0000000  0.5000000  0.5000000
                       0.5000000  0.0000000  0.5000000     0.5000000  0.5000000  0.0000000
                       0.0000000  0.0000000  0.0000000     0.0000000  0.5000000  0.5000000
                       0.5000000  0.0000000  0.5000000     0.5000000  0.5000000  0.0000000
                       0.0000000  0.0000000  0.0000000     0.0000000  0.5000000  0.5000000
                       0.5000000  0.0000000  0.5000000     0.5000000  0.5000000  0.0000000
                       0.0000000  0.0000000  0.0000000     0.0000000  0.5000000  0.5000000
                       0.5000000  0.0000000  0.5000000     0.5000000  0.5000000  0.0000000
                       0.0000000  0.0000000  0.0000000     0.0000000  0.5000000  0.5000000
                       0.5000000  0.0000000  0.5000000     0.5000000  0.5000000  0.0000000
                       0.0000000  0.0000000  0.0000000     0.0000000  0.5000000  0.5000000
                       0.5000000  0.0000000  0.5000000     0.5000000  0.5000000  0.0000000
                       0.0000000  0.0000000  0.0000000     0.0000000  0.5000000  0.5000000
                       0.5000000  0.0000000  0.5000000     0.5000000  0.5000000  0.0000000
                       0.0000000  0.0000000  0.0000000     0.0000000  0.5000000  0.5000000
                       0.5000000  0.0000000  0.5000000     0.5000000  0.5000000  0.0000000
                       0.0000000  0.0000000  0.0000000     0.0000000  0.5000000  0.5000000
                       0.5000000  0.0000000  0.5000000     0.5000000  0.5000000  0.0000000
                       0.0000000  0.0000000  0.0000000     0.0000000  0.5000000  0.5000000
                       0.5000000  0.0000000  0.5000000     0.5000000  0.5000000  0.0000000
                       0.0000000  0.0000000  0.0000000     0.0000000  0.5000000  0.5000000
                       0.5000000  0.0000000  0.5000000     0.5000000  0.5000000  0.0000000
                       0.0000000  0.0000000  0.0000000     0.0000000  0.5000000  0.5000000
                       0.5000000  0.0000000  0.5000000     0.5000000  0.5000000  0.0000000
                       0.0000000  0.0000000  0.0000000     0.0000000  0.5000000  0.5000000
                       0.5000000  0.0000000  0.5000000     0.5000000  0.5000000  0.0000000
                       0.0000000  0.0000000  0.0000000     0.0000000  0.5000000  0.5000000
                       0.5000000  0.0000000  0.5000000     0.5000000  0.5000000  0.0000000
                       0.0000000  0.0000000  0.0000000     0.0000000  0.5000000  0.5000000
                       0.5000000  0.0000000  0.5000000     0.5000000  0.5000000  0.0000000
                       0.0000000  0.0000000  0.0000000     0.0000000  0.5000000  0.5000000
                       0.5000000  0.0000000  0.5000000     0.5000000  0.5000000  0.0000000
                       0.0000000  0.0000000  0.0000000     0.0000000  0.5000000  0.5000000
                       0.5000000  0.0000000  0.5000000     0.5000000  0.5000000  0.0000000
                       0.0000000  0.0000000  0.0000000     0.0000000  0.5000000  0.5000000
                       0.5000000  0.0000000  0.5000000     0.5000000  0.5000000  0.0000000
                       0.0000000  0.0000000  0.0000000     0.0000000  0.5000000  0.5000000
                       0.5000000  0.0000000  0.5000000     0.5000000  0.5000000  0.0000000
                       0.0000000  0.0000000  0.0000000     0.0000000  0.5000000  0.5000000
                       0.5000000  0.0000000  0.5000000     0.5000000  0.5000000  0.0000000
                       0.0000000  0.0000000  0.0000000     0.0000000  0.5000000  0.5000000
                       0.5000000  0.0000000  0.5000000     0.5000000  0.5000000  0.0000000
           toldfe      1.00000000E-06 Hartree
            typat      1  1  1  1
              wtk        0.37500    0.25000    0.18750    0.18750
           xangst      0.0000000000E+00  0.0000000000E+00  0.0000000000E+00
                       0.0000000000E+00  1.9447262416E+00  1.9447262416E+00
                       1.9447262416E+00  0.0000000000E+00  1.9447262416E+00
                       1.9447262416E+00  1.9447262416E+00  0.0000000000E+00
            xcart      0.0000000000E+00  0.0000000000E+00  0.0000000000E+00
                       0.0000000000E+00  3.6750000000E+00  3.6750000000E+00
                       3.6750000000E+00  0.0000000000E+00  3.6750000000E+00
                       3.6750000000E+00  3.6750000000E+00  0.0000000000E+00
             xred      0.0000000000E+00  0.0000000000E+00  0.0000000000E+00
                       0.0000000000E+00  5.0000000000E-01  5.0000000000E-01
                       5.0000000000E-01  0.0000000000E+00  5.0000000000E-01
                       5.0000000000E-01  5.0000000000E-01  0.0000000000E+00
            znucl       46.00000

================================================================================
  

================================================================================

 Suggested references for the acknowledgment of ABINIT usage.

 The users of ABINIT have little formal obligations with respect to the ABINIT group
 (those specified in the GNU General Public License, http://www.gnu.org/copyleft/gpl.txt).
 However, it is common practice in the scientific literature,
 to acknowledge the efforts of people that have made the research possible.
 In this spirit, please find below suggested citations of work written by ABINIT developers,
 corresponding to implementations inside of ABINIT that you have used in the present run.
 Note also that it will be of great value to readers of publications presenting these results,
 to read papers enabling them to understand the theoretical formalism and details
 of the ABINIT implementation.
 For information on why they are suggested, see also https://www.abinit.org/about/?text=acknowledgments.
-
- [1] Recent developments in the ABINIT software package.
- Computer Phys. Comm. 205, 106 (2016).
- X.Gonze, F.Jollet, F.Abreu Araujo, D.Adams, B.Amadon, T.Applencourt,
- C.Audouze, J.-M.Beuken, J.Bieder, A.Bokhanchuk, E.Bousquet, F.Bruneval
- D.Caliste, M.Cote, F.Dahm, F.Da Pieve, M.Delaveau, M.Di Gennaro,
- B.Dorado, C.Espejo, G.Geneste, L.Genovese, A.Gerossier, M.Giantomassi,
- Y.Gillet, D.R.Hamann, L.He, G.Jomard, J.Laflamme Janssen, S.Le Roux,
- A.Levitt, A.Lherbier, F.Liu, I.Lukacevic, A.Martin, C.Martins,
- M.J.T.Oliveira, S.Ponce, Y.Pouillon, T.Rangel, G.-M.Rignanese,
- A.H.Romero, B.Rousseau, O.Rubel, A.A.Shukri, M.Stankovski, M.Torrent,
- M.J.Van Setten, B.Van Troeye, M.J.Verstraete, D.Waroquier, J.Wiktor,
- B.Xue, A.Zhou, J.W.Zwanziger.
- Comment : the fourth generic paper describing the ABINIT project.
- Note that a version of this paper, that is not formatted for Computer Phys. Comm. 
- is available at https://www.abinit.org/about/ABINIT16.pdf .
- The licence allows the authors to put it on the Web.
-
- [2] Optimized norm-conserving Vanderbilt pseudopotentials.
- D.R. Hamann, Phys. Rev. B 88, 085117 (2013).
- Comment: Some pseudopotential generated using the ONCVPSP code were used.
-
- [3] ABINIT : First-principles approach of materials and nanosystem properties.
- Computer Phys. Comm. 180, 2582-2615 (2009).
- X. Gonze, B. Amadon, P.-M. Anglade, J.-M. Beuken, F. Bottin, P. Boulanger, F. Bruneval,
- D. Caliste, R. Caracas, M. Cote, T. Deutsch, L. Genovese, Ph. Ghosez, M. Giantomassi
- S. Goedecker, D.R. Hamann, P. Hermet, F. Jollet, G. Jomard, S. Leroux, M. Mancini, S. Mazevet,
- M.J.T. Oliveira, G. Onida, Y. Pouillon, T. Rangel, G.-M. Rignanese, D. Sangalli, R. Shaltaf,
- M. Torrent, M.J. Verstraete, G. Zerah, J.W. Zwanziger
- Comment : the third generic paper describing the ABINIT project.
- Note that a version of this paper, that is not formatted for Computer Phys. Comm. 
- is available at https://www.abinit.org/about/ABINIT_CPC_v10.pdf .
- The licence allows the authors to put it on the Web.
-
- [4] A brief introduction to the ABINIT software package.
- Z. Kristallogr. 220, 558-562 (2005).
- X. Gonze, G.-M. Rignanese, M. Verstraete, J.-M. Beuken, Y. Pouillon, R. Caracas, F. Jollet,
- M. Torrent, G. Zerah, M. Mikami, Ph. Ghosez, M. Veithen, J.-Y. Raty, V. Olevano, F. Bruneval,
- L. Reining, R. Godby, G. Onida, D.R. Hamann, and D.C. Allan.
- Comment : the second generic paper describing the ABINIT project. Note that this paper
- should be cited especially if you are using the GW part of ABINIT, as several authors
- of this part are not in the list of authors of the first or third paper.
- The .pdf of the latter paper is available at https://www.abinit.org/about/zfk_0505-06_558-562.pdf.
- Note that it should not redistributed (Copyright by Oldenburg Wissenshaftverlag,
- the licence allows the authors to put it on the Web).
-
- And optionally:
-
- [5] First-principles computation of material properties : the ABINIT software project. 
- X. Gonze, J.-M. Beuken, R. Caracas, F. Detraux, M. Fuchs, G.-M. Rignanese, L. Sindic,
- M. Verstraete, G. Zerah, F. Jollet, M. Torrent, A. Roy, M. Mikami, Ph. Ghosez, J.-Y. Raty, D.C. Allan.
- Computational Materials Science 25, 478-492 (2002). http://dx.doi.org/10.1016/S0927-0256(02)00325-7
- Comment : the original paper describing the ABINIT project.

 Calculation completed.
.Delivered   1 WARNINGs and   1 COMMENTs to log file.

--- !FinalSummary
program: abinit
version: 8.6.3
start_datetime: Sat Apr 21 14:16:11 2018
end_datetime: Sat Apr 21 14:16:15 2018
overall_cpu_time:           3.8
overall_wall_time:           3.9
exit_requested_by_user: no 
timelimit: 0
pseudos: 
    Pd  : 4144628137bc01fa80f914e5e2c5b797
usepaw: 0
mpi_procs: 1
omp_threads: 1
num_warnings: 1
num_comments: 1
...
