
.Version 8.6.3 of ABINIT 
.(sequential version, prepared for a x86_64_linux_gnu5.4 computer) 

.Copyright (C) 1998-2017 ABINIT group . 
 ABINIT comes with ABSOLUTELY NO WARRANTY.
 It is free software, and you are welcome to redistribute it
 under certain conditions (GNU General Public License,
 see ~abinit/COPYING or http://www.gnu.org/copyleft/gpl.txt).

 ABINIT is a project of the Universite Catholique de Louvain,
 Corning Inc. and other collaborators, see ~abinit/doc/developers/contributors.txt .
 Please read ~abinit/doc/users/acknowledgments.html for suggested
 acknowledgments of the ABINIT effort.
 For more information, see https://www.abinit.org .

.Starting date : Sat 21 Apr 2018.
- ( at 23h04 )
  
- input  file    -> sim6geom.in
- output file    -> sim6geom.out
- root for input  files -> sim6geom_i
- root for output files -> sim6geom_o


 Symmetries : space group P1 (#  1); Bravais aP (primitive triclinic)
================================================================================
 Values of the parameters that define the memory need of the present run
     intxc =       0    ionmov =       5      iscf =       7    lmnmax =       6
     lnmax =       6     mgfft =     320  mpssoang =       3    mqgrid =   15343
     natom =      20  nloc_mem =       1    nspden =       1   nspinor =       1
    nsppol =       1      nsym =       1    n1xccc =    2501    ntypat =       3
    occopt =       1   xclevel =       2
-    mband =         123        mffmem =           1         mkmem =           2
       mpw =       89056          nfft =     1658880          nkpt =           2
================================================================================
P This job should need less than                     837.056 Mbytes of memory.
  Rough estimation (10% accuracy) of disk space for files :
_ WF disk file :    334.288 Mbytes ; DEN or POT disk file :     12.658 Mbytes.
================================================================================

--------------------------------------------------------------------------------
------------- Echo of variables that govern the present computation ------------
--------------------------------------------------------------------------------
-
- outvars: echo of selected default values                                      
-   iomode0 =  0 , fftalg0 =112 , wfoptalg0 =  0
-
- outvars: echo of global parameters not present in the input file              
-  max_nthreads =    0
-
 -outvars: echo values of preprocessed input variables --------
            acell      8.6808000000E+00  8.6808000000E+00  4.0000000000E+01 Bohr
              amu      4.78800000E+01  1.59994000E+01  1.06420000E+02
           diemac      1.20000000E+01
          dilatmx      1.10000000E+00
             ecut      6.00000000E+01 Hartree
           ecutsm      5.00000000E-01 Hartree
-          fftalg         112
           ionmov           5
              ixc          11
              kpt      1.25000000E-01  5.00000000E-01  5.00000000E-01
                       3.75000000E-01  5.00000000E-01  5.00000000E-01
           kptopt           2
         kptrlatt        4    0    0      0    1    0      0    0    1
          kptrlen      8.68080000E+00
P           mkmem           2
            natom          20
            nband         123
            ngfft          72      72     320
             nkpt           2
            nstep          10
             nsym           1
            ntime          10
           ntypat           3
              occ      2.000000  2.000000  2.000000  2.000000  2.000000  2.000000
                       2.000000  2.000000  2.000000  2.000000  2.000000  2.000000
                       2.000000  2.000000  2.000000  2.000000  2.000000  2.000000
                       2.000000  2.000000  2.000000  2.000000  2.000000  2.000000
                       2.000000  2.000000  2.000000  2.000000  2.000000  2.000000
                       2.000000  2.000000  2.000000  2.000000  2.000000  2.000000
                       2.000000  2.000000  2.000000  2.000000  2.000000  2.000000
                       2.000000  2.000000  2.000000  2.000000  2.000000  2.000000
                       2.000000  2.000000  2.000000  2.000000  2.000000  2.000000
                       2.000000  2.000000  2.000000  2.000000  2.000000  2.000000
                       2.000000  2.000000  2.000000  2.000000  2.000000  2.000000
                       2.000000  2.000000  2.000000  2.000000  2.000000  2.000000
                       2.000000  2.000000  2.000000  2.000000  2.000000  2.000000
                       2.000000  2.000000  2.000000  2.000000  2.000000  2.000000
                       2.000000  2.000000  2.000000  2.000000  2.000000  2.000000
                       2.000000  2.000000  2.000000  2.000000  2.000000  2.000000
                       2.000000  2.000000  2.000000  2.000000  2.000000  2.000000
                       2.000000  2.000000  2.000000  2.000000  2.000000  2.000000
                       2.000000  2.000000  2.000000  2.000000  2.000000  2.000000
                       2.000000  2.000000  2.000000  2.000000  2.000000  2.000000
                       0.000000  0.000000  0.000000
           shiftk      5.00000000E-01  5.00000000E-01  5.00000000E-01
          spgroup           1
           toldfe      1.00000000E-02 Hartree
            typat      1  1  1  1  2  2  2  2  2  2  2  2  3  3  3  3  3  3  3  3
              wtk        0.50000    0.50000
           xangst      0.0000000000E+00  0.0000000000E+00  0.0000000000E+00
                       0.0000000000E+00  0.0000000000E+00  4.5936815123E+00
                       2.2968407562E+00  1.4793678043E+00  2.2968407562E+00
                       2.2968407562E+00  1.4793678043E+00  6.8905222685E+00
                       3.9876836484E+01  0.0000000000E+00  1.4240158683E+00
                       3.9876836484E+01  0.0000000000E+00  6.0176973806E+00
                       3.1696656440E+00  0.0000000000E+00  3.1696656440E+00
                       3.1696656440E+00  0.0000000000E+00  7.7633471563E+00
                       8.7282488785E-01  1.4793678043E+00  3.7208566245E+00
                       8.7282488785E-01  1.4793678043E+00  8.3145381368E+00
                       3.7208566245E+00  1.4793678043E+00  8.7282488785E-01
                       3.7208566245E+00  1.4793678043E+00  5.4665064002E+00
                       8.7282488785E-01  0.0000000000E+00  1.2097837672E+01
                       8.7282488785E-01  0.0000000000E+00  1.5988560180E+01
                       1.9453612542E+00  1.3755961537E+00  1.3473433826E+01
                       1.9453612542E+00  1.3755961537E+00  1.7364156334E+01
                       1.9453612542E+00 -1.3755961537E+00  1.3473433826E+01
                       1.9453612542E+00 -1.3755961537E+00  1.7364156334E+01
                       0.0000000000E+00  0.0000000000E+00  1.4848977062E+01
                       0.0000000000E+00  0.0000000000E+00  1.8739699570E+01
            xcart      0.0000000000E+00  0.0000000000E+00  0.0000000000E+00
                       0.0000000000E+00  0.0000000000E+00  8.6808000000E+00
                       4.3404000000E+00  2.7956000000E+00  4.3404000000E+00
                       4.3404000000E+00  2.7956000000E+00  1.3021200000E+01
                       7.5356300000E+01  0.0000000000E+00  2.6910000000E+00
                       7.5356300000E+01  0.0000000000E+00  1.1371800000E+01
                       5.9898000000E+00  0.0000000000E+00  5.9898000000E+00
                       5.9898000000E+00  0.0000000000E+00  1.4670600000E+01
                       1.6494000000E+00  2.7956000000E+00  7.0314000000E+00
                       1.6494000000E+00  2.7956000000E+00  1.5712200000E+01
                       7.0314000000E+00  2.7956000000E+00  1.6494000000E+00
                       7.0314000000E+00  2.7956000000E+00  1.0330200000E+01
                       1.6494000000E+00  0.0000000000E+00  2.2861600000E+01
                       1.6494000000E+00  0.0000000000E+00  3.0214000000E+01
                       3.6762000000E+00  2.5995000000E+00  2.5461100000E+01
                       3.6762000000E+00  2.5995000000E+00  3.2813500000E+01
                       3.6762000000E+00 -2.5995000000E+00  2.5461100000E+01
                       3.6762000000E+00 -2.5995000000E+00  3.2813500000E+01
                       0.0000000000E+00  0.0000000000E+00  2.8060500000E+01
                       0.0000000000E+00  0.0000000000E+00  3.5412900000E+01
             xred      0.0000000000E+00  0.0000000000E+00  0.0000000000E+00
                       0.0000000000E+00  0.0000000000E+00  2.1702000000E-01
                       5.0000000000E-01  3.2204405124E-01  1.0851000000E-01
                       5.0000000000E-01  3.2204405124E-01  3.2553000000E-01
                       8.6808013086E+00  0.0000000000E+00  6.7275000000E-02
                       8.6808013086E+00  0.0000000000E+00  2.8429500000E-01
                       6.9000552944E-01  0.0000000000E+00  1.4974500000E-01
                       6.9000552944E-01  0.0000000000E+00  3.6676500000E-01
                       1.9000552944E-01  3.2204405124E-01  1.7578500000E-01
                       1.9000552944E-01  3.2204405124E-01  3.9280500000E-01
                       8.0999447056E-01  3.2204405124E-01  4.1235000000E-02
                       8.0999447056E-01  3.2204405124E-01  2.5825500000E-01
                       1.9000552944E-01  0.0000000000E+00  5.7154000000E-01
                       1.9000552944E-01  0.0000000000E+00  7.5535000000E-01
                       4.2348631463E-01  2.9945396738E-01  6.3652750000E-01
                       4.2348631463E-01  2.9945396738E-01  8.2033750000E-01
                       4.2348631463E-01 -2.9945396738E-01  6.3652750000E-01
                       4.2348631463E-01 -2.9945396738E-01  8.2033750000E-01
                       0.0000000000E+00  0.0000000000E+00  7.0151250000E-01
                       0.0000000000E+00  0.0000000000E+00  8.8532250000E-01
            znucl       22.00000    8.00000   46.00000

================================================================================

 chkinp: Checking input parameters for consistency.

================================================================================
== DATASET  1 ==================================================================
-   nproc =    1

 Exchange-correlation functional for the present dataset will be:
  GGA: Perdew-Burke-Ernzerhof functional - ixc=11
 Citation for XC functional:
  J.P.Perdew, K.Burke, M.Ernzerhof, PRL 77, 3865 (1996)

 Real(R)+Recip(G) space primitive vectors, cartesian coordinates (Bohr,Bohr^-1):
 R(1)=  8.6808000  0.0000000  0.0000000  G(1)=  0.1151968  0.0000000  0.0000000
 R(2)=  0.0000000  8.6808000  0.0000000  G(2)=  0.0000000  0.1151968  0.0000000
 R(3)=  0.0000000  0.0000000 40.0000000  G(3)=  0.0000000  0.0000000  0.0250000
 Unit cell volume ucvol=  3.0142515E+03 bohr^3
 Angles (23,13,12)=  9.00000000E+01  9.00000000E+01  9.00000000E+01 degrees

 getcut: wavevector=  0.0000  0.0000  0.0000  ngfft=  72  72 320
         ecut(hartree)=     72.600   => boxcut(ratio)=   2.08572

--- Pseudopotential description ------------------------------------------------
- pspini: atom type   1  psp file is ../../../Psps_for_tests/Ti.psp8
- pspatm: opening atomic psp file    ../../../Psps_for_tests/Ti.psp8
- Ti    ONCVPSP-3.2.3.1  r_core=   1.35825   1.31050   1.66360
- 22.00000  12.00000    170504                znucl, zion, pspdat
    8   11    2    4       600   0.00000      pspcod,pspxc,lmax,lloc,mmax,r2well
    5.99000000000000    2.50000000000000    0.00000000000000   rchrg,fchrg,qchrg
     nproj     2     2     2
     extension_switch     1
  pspatm : epsatm=   14.68144390
         --- l  ekb(1:nproj) -->
             0   11.362348    1.263639
             1    1.975402   -0.084666
             2   -5.186090   -1.477451
 pspatm: atomic psp has been read  and splines computed

- pspini: atom type   2  psp file is ../../../Psps_for_tests/O.psp8
- pspatm: opening atomic psp file    ../../../Psps_for_tests/O.psp8
- O     ONCVPSP-3.2.3.1  r_core=   1.35509   1.45563   1.26150
-  8.00000   6.00000    170504                znucl, zion, pspdat
    8   11    2    4       600   0.00000      pspcod,pspxc,lmax,lloc,mmax,r2well
    5.99000000000000    4.00000000000000    0.00000000000000   rchrg,fchrg,qchrg
     nproj     2     2     1
     extension_switch     1
  pspatm : epsatm=    6.19546011
         --- l  ekb(1:nproj) -->
             0    6.056735    0.824024
             1   -4.717130   -1.149271
             2   -1.331955
 pspatm: atomic psp has been read  and splines computed

- pspini: atom type   3  psp file is ../../../Psps_for_tests/Pd.psp8
- pspatm: opening atomic psp file    ../../../Psps_for_tests/Pd.psp8
- Pd    ONCVPSP-3.2.3.1  r_core=   1.41052   1.46191   1.55175
- 46.00000  18.00000    170510                znucl, zion, pspdat
    8   11    2    4       600   0.00000      pspcod,pspxc,lmax,lloc,mmax,r2well
    5.99000000000000    7.00000000000000    0.00000000000000   rchrg,fchrg,qchrg
     nproj     2     2     2
     extension_switch     1
  pspatm : epsatm=   26.09224486
         --- l  ekb(1:nproj) -->
             0    7.845850   -2.282160
             1    3.261104   -0.686948
             2   -1.134855   -0.401224
 pspatm: atomic psp has been read  and splines computed

   7.60865797E+04                                ecore*ucvol(ha*bohr**3)
--------------------------------------------------------------------------------

_setup2: Arith. and geom. avg. npw (full set) are   89056.000   89056.000

================================================================================

=== [ionmov= 5] Simple relaxation of ionic positions                        
================================================================================

--- Iteration: ( 1/10) Internal Cycle: (1/1)
--------------------------------------------------------------------------------

---SELF-CONSISTENT-FIELD CONVERGENCE--------------------------------------------

     iter   Etot(hartree)      deltaE(h)  residm     vres2
 ETOT  1  -1259.2010940025    -1.259E+03 1.593E-01 9.511E+07
 ETOT  2   1016.7674306014     2.276E+03 2.218E-01 1.352E+09
 ETOT  3  -775.14108536751    -1.792E+03 9.452E-01 3.525E+08
 ETOT  4  -1334.2631534251    -5.591E+02 2.209E-01 5.571E+07
 ETOT  5  -1427.5432332351    -9.328E+01 1.260E-01 1.052E+07
 ETOT  6  -1440.3061748330    -1.276E+01 5.984E-02 4.298E+06
 ETOT  7  -1441.6040509703    -1.298E+00 1.683E-02 3.696E+06
 ETOT  8  -1443.0927320082    -1.489E+00 1.179E-02 2.789E+06
 ETOT  9  -1443.5781660040    -4.854E-01 1.159E-02 2.483E+06
 ETOT 10  -1362.0680807567     8.151E+01 2.959E-01 2.919E+07

 Cartesian components of stress tensor (hartree/bohr^3)
  sigma(1 1)= -1.44041649E-02  sigma(3 2)= -2.79954319E-05
  sigma(2 2)= -1.88871233E-02  sigma(3 1)= -1.58602495E-03
  sigma(3 3)=  1.98672829E-02  sigma(2 1)= -1.69567873E-04


 scprqt:  WARNING -
  nstep=   10 was not enough SCF cycles to converge;
  maximum energy difference=  8.151E+01 exceeds toldfe=  1.000E-02

 Integrated electronic density in atomic spheres:
 ------------------------------------------------
 Atom  Sphere_radius  Integrated_density
    1        2.00000         13.64669886
    2        2.00000         14.90742511
    3        2.00000         10.80489627
    4        2.00000         12.44287107
    5        2.00000          5.95733643
    6        2.00000          6.99112124
    7        2.00000          4.95977582
    8        2.00000          6.94442913
    9        2.00000          3.21077015
   10        2.00000          3.07108966
   11        2.00000          3.94114325
   12        2.00000          5.57334228
   13        2.00000         10.86006666
   14        2.00000         17.40692480
   15        2.00000         12.67291083
   16        2.00000         14.87687917
   17        2.00000         13.43942360
   18        2.00000         14.69673070
   19        2.00000         17.33193625
   20        2.00000         10.69690130

---OUTPUT-----------------------------------------------------------------------

 Cartesian coordinates (xcart) [bohr]
  0.00000000000000E+00  0.00000000000000E+00  0.00000000000000E+00
  0.00000000000000E+00  0.00000000000000E+00  8.68080000000000E+00
  4.34040000000000E+00  2.79560000000000E+00  4.34040000000000E+00
  4.34040000000000E+00  2.79560000000000E+00  1.30212000000000E+01
  7.53563000000000E+01  0.00000000000000E+00  2.69100000000000E+00
  7.53563000000000E+01  0.00000000000000E+00  1.13718000000000E+01
  5.98980000000000E+00  0.00000000000000E+00  5.98980000000000E+00
  5.98980000000000E+00  0.00000000000000E+00  1.46706000000000E+01
  1.64940000000000E+00  2.79560000000000E+00  7.03140000000000E+00
  1.64940000000000E+00  2.79560000000000E+00  1.57122000000000E+01
  7.03140000000000E+00  2.79560000000000E+00  1.64940000000000E+00
  7.03140000000000E+00  2.79560000000000E+00  1.03302000000000E+01
  1.64940000000000E+00  0.00000000000000E+00  2.28616000000000E+01
  1.64940000000000E+00  0.00000000000000E+00  3.02140000000000E+01
  3.67620000000000E+00  2.59950000000000E+00  2.54611000000000E+01
  3.67620000000000E+00  2.59950000000000E+00  3.28135000000000E+01
  3.67620000000000E+00 -2.59950000000000E+00  2.54611000000000E+01
  3.67620000000000E+00 -2.59950000000000E+00  3.28135000000000E+01
  0.00000000000000E+00  0.00000000000000E+00  2.80605000000000E+01
  0.00000000000000E+00  0.00000000000000E+00  3.54129000000000E+01
 Reduced coordinates (xred)
  0.00000000000000E+00  0.00000000000000E+00  0.00000000000000E+00
  0.00000000000000E+00  0.00000000000000E+00  2.17020000000000E-01
  5.00000000000000E-01  3.22044051239517E-01  1.08510000000000E-01
  5.00000000000000E-01  3.22044051239517E-01  3.25530000000000E-01
  8.68080130863515E+00  0.00000000000000E+00  6.72750000000000E-02
  8.68080130863515E+00  0.00000000000000E+00  2.84295000000000E-01
  6.90005529444291E-01  0.00000000000000E+00  1.49745000000000E-01
  6.90005529444291E-01  0.00000000000000E+00  3.66765000000000E-01
  1.90005529444291E-01  3.22044051239517E-01  1.75785000000000E-01
  1.90005529444291E-01  3.22044051239517E-01  3.92805000000000E-01
  8.09994470555709E-01  3.22044051239517E-01  4.12350000000000E-02
  8.09994470555709E-01  3.22044051239517E-01  2.58255000000000E-01
  1.90005529444291E-01  0.00000000000000E+00  5.71540000000000E-01
  1.90005529444291E-01  0.00000000000000E+00  7.55350000000000E-01
  4.23486314625380E-01  2.99453967376279E-01  6.36527500000000E-01
  4.23486314625380E-01  2.99453967376279E-01  8.20337500000000E-01
  4.23486314625380E-01 -2.99453967376279E-01  6.36527500000000E-01
  4.23486314625380E-01 -2.99453967376279E-01  8.20337500000000E-01
  0.00000000000000E+00  0.00000000000000E+00  7.01512500000000E-01
  0.00000000000000E+00  0.00000000000000E+00  8.85322500000000E-01
 Cartesian forces (fcart) [Ha/bohr]; max,rms= 6.98878E+00 1.45085E+00 (free atoms)
 -5.71364126893471E-01  6.08373456382399E-01 -4.76419647754019E+00
 -3.41951327346733E-02  1.05240772275670E+00  3.44430600043064E-02
  1.51404804672295E-01  1.73351665971523E-01 -1.68711041372331E+00
 -6.89036570461675E-01  7.04562536415905E-01  6.98877999762837E+00
  8.95462694895058E-02 -4.99222777748817E-01  6.89686522971870E-01
  1.48244468108102E-01 -1.87394645859246E-01 -1.07765999191236E+00
  4.89191209318833E-01 -1.14584762170658E-01  1.33585163551795E+00
  1.38223811541417E-01 -1.65892165171500E-01 -6.99812038091115E-01
 -2.22665651211660E-01 -7.09330093758331E-01  8.12169966135440E-01
  4.53830950453627E-01 -1.20892447403440E-01 -3.88449788209541E+00
  2.43597991340167E-01 -3.53613733225594E-01  1.52023684775522E+00
 -8.59750409417290E-02 -5.69024545287229E-01 -7.42934241680310E-01
  3.03326397489772E-01 -2.99251758367438E-01 -2.16351145352091E+00
  1.58851806146253E+00  3.87783154980975E-01  2.71629807906066E-01
 -1.51312291142437E-01 -7.73224664121142E-01  4.66553159915068E-01
 -4.94200161623866E-02 -3.08111771326347E-01  4.97811566594748E-01
 -4.10028322956865E-01  1.09942291158975E+00  4.04547154056820E-01
  9.41196302635301E-03  3.72349468215812E-01  4.22969157755401E-01
 -1.69966653869608E+00 -2.75543918364433E-01 -1.41579422944923E+00
  2.98367764298377E-01 -2.21636335088892E-02  2.99083785177158E+00
 Reduced forces (fred)
  4.95989771273684E+00 -5.28116830016433E+00  1.90567859101608E+02
  2.96841108243152E-01 -9.13574095970635E+00 -1.37772240017225E+00
 -1.31431482839926E+00 -1.50483114196560E+00  6.74844165489323E+01
  5.98138866086371E+00 -6.11616646611919E+00 -2.79551199905135E+02
 -7.77333256184502E-01  4.33365308908193E+00 -2.75874609188748E+01
 -1.28688057875281E+00  1.62673544177495E+00  4.31063996764946E+01
 -4.24657104985492E+00  9.94687403451048E-01 -5.34340654207179E+01
 -1.19989326322873E+00  1.44007670742076E+00  2.79924815236446E+01
  1.93291598503817E+00  6.15755267789732E+00 -3.24867986454176E+01
 -3.93961571469784E+00  1.04944315741979E+00  1.55379915283816E+02
 -2.11462544322572E+00  3.06965009538474E+00 -6.08094739102088E+01
  7.46332135406961E-01  4.93958827272938E+00  2.97173696672124E+01
 -2.63311579132921E+00  2.59774466403606E+00  8.65404581408362E+01
 -1.37896075879439E+01 -3.36626801175885E+00 -1.08651923162426E+01
  1.31351173694927E+00  6.71220866430281E+00 -1.86621263966027E+01
  4.29005276302445E-01  2.67465666452975E+00 -1.99124626637899E+01
  3.55937386592395E+00 -9.54387041092833E+00 -1.61818861622728E+01
 -8.17033686391652E-02 -3.23229126368782E+00 -1.69187663102161E+01
  1.47544652891129E+01  2.39194164653797E+00  5.66317691779691E+01
 -2.59007088832135E+00  1.92398069763965E-01 -1.19633514070863E+02
 Total energy (etotal) [Ha]= -1.36206808075669E+03

--- Iteration: ( 2/10) Internal Cycle: (1/1)
--------------------------------------------------------------------------------

---SELF-CONSISTENT-FIELD CONVERGENCE--------------------------------------------

     iter   Etot(hartree)      deltaE(h)  residm     vres2
 ETOT  1   3571.8883918443     3.572E+03 1.235E+01 2.994E+09
 ETOT  2   9824.0501451313     6.252E+03 2.093E+02 1.260E+10
 ETOT  3   899.63130251428    -8.924E+03 8.594E+02 1.121E+09
 ETOT  4   8534.5834903350     7.635E+03 3.485E+02 8.440E+09
 ETOT  5   10510.289639452     1.976E+03 1.133E+01 7.743E+09
 ETOT  6   11592.902525046     1.083E+03 7.495E+00 8.622E+09
 ETOT  7   11174.495834384    -4.184E+02 3.161E+00 6.972E+09
 ETOT  8   2575.9351169093    -8.599E+03 4.632E+01 9.551E+08
 ETOT  9   3584.2045661396     1.008E+03 6.021E+01 2.574E+09
 ETOT 10   5831.7447927917     2.248E+03 4.740E+02 9.646E+09

 Cartesian components of stress tensor (hartree/bohr^3)
  sigma(1 1)= -2.05295430E+00  sigma(3 2)= -2.69271092E-03
  sigma(2 2)= -2.07075877E+00  sigma(3 1)= -2.81265734E-02
  sigma(3 3)=  1.97961547E+00  sigma(2 1)= -7.97937621E-02


 scprqt:  WARNING -
  nstep=   10 was not enough SCF cycles to converge;
  maximum energy difference=  2.248E+03 exceeds toldfe=  1.000E-02

 Integrated electronic density in atomic spheres:
 ------------------------------------------------
 Atom  Sphere_radius  Integrated_density
    1        2.00000         14.97676775
    2        2.00000          0.18076009
    3        2.00000         16.74143152
    4        2.00000          0.02667339
    5        2.00000          9.53380479
    6        2.00000          0.06164224
    7        2.00000          0.03057396
    8        2.00000          4.13643112
    9        2.00000          0.00911246
   10        2.00000          1.41717828
   11        2.00000          0.09077178
   12        2.00000          3.82984305
   13        2.00000          0.03776309
   14        2.00000         14.17027047
   15        2.00000         16.72192462
   16        2.00000          0.03797945
   17        2.00000         16.31051107
   18        2.00000          0.03194000
   19        2.00000          0.01738553
   20        2.00000         13.90816199

---OUTPUT-----------------------------------------------------------------------

 Cartesian coordinates (xcart) [bohr]
  4.08445805419086E+00 -3.34448480388691E+00 -4.97772459000885E+01
  4.59868771421462E+00 -6.67888411927033E+00  3.77207133648222E+01
  3.94783318772297E-01  9.71262265091657E+00 -1.14556878561858E+01
  6.97837094807091E-01  8.84797204208137E+00  8.25925142345493E+01
  7.39107764185772E+01 -5.28784250438606E+00 -1.59175757642233E+01
  7.41835394532609E+01 -5.44045253032858E+00  3.90626567068456E+01
  5.51227482082493E+00 -3.91684478818891E+00  7.54770970871451E+00
  7.66585604819512E+00 -3.38748608023592E+00  6.15369878452432E+01
  1.82730960755174E+00  6.46227389634030E+00  1.28078962475098E+01
 -1.57015283262975E-01  3.46958516548217E+00  5.96753520178635E+01
  8.44143453284772E+00  8.23469814085710E+00 -2.23277462931303E+01
  8.40507333528941E+00  8.40769781181748E+00  3.26466302143887E+01
 -1.06630792950877E+01 -6.62943393708649E-01 -1.15765712004966E+02
  4.32431178110193E+00 -9.91514998975878E-01  7.01524783027327E+01
  1.20186834490649E+01  5.36234013758256E+00  2.85230190812160E+01
  3.96452187640976E+00  3.42131850123793E-01  3.78887774755496E+00
  1.16266952624366E+01 -3.80304989397816E+00  2.67312434503798E+01
  3.69798989779396E+00 -1.56247150411741E-01  3.81463723268098E+00
 -7.01357304362532E+00 -1.10253810993227E-01  9.11846205042889E+01
 -7.82365043362978E-01 -2.85717620836994E-01 -1.39543688401964E+01
 Reduced coordinates (xred)
  4.70516318103269E-01 -3.85273800097561E-01 -1.24443114750221E+00
  5.29753906807509E-01 -7.69385784636246E-01  9.43017834120555E-01
  4.54777576689127E-02  1.11886262221415E+00 -2.86392196404644E-01
  8.03885695796575E-02  1.01925767695159E+00  2.06481285586373E+00
  8.51428168124795E+00 -6.09142303058020E-01 -3.97939394105583E-01
  8.54570309801641E+00 -6.26722482988731E-01  9.76566417671139E-01
  6.34996177866663E-01 -4.51207813587332E-01  1.88692742717863E-01
  8.83081749170021E-01 -3.90227407639378E-01  1.53842469613108E+00
  2.10500139106044E-01  7.44432989625415E-01  3.20197406187745E-01
 -1.80876512836346E-02  3.99684955935187E-01  1.49188380044659E+00
  9.72425874671426E-01  9.48610512954694E-01 -5.58193657328257E-01
  9.68237182666276E-01  9.68539513848664E-01  8.16165755359718E-01
 -1.22835214439771E+00 -7.63689284062124E-02 -2.89414280012415E+00
  4.98146689372169E-01 -1.14219311466210E-01  1.75381195756832E+00
  1.38451334543647E+00  6.17724188736356E-01  7.13075477030399E-01
  4.56700059488729E-01  3.94124792788444E-02  9.47219436888741E-02
  1.33935757792330E+00 -4.38099010918137E-01  6.68281086259496E-01
  4.25996440166109E-01 -1.79991648709498E-02  9.53659308170245E-02
 -8.07940863010935E-01 -1.27008813696003E-02  2.27961551260722E+00
 -9.01259150496472E-02 -3.29137430694169E-02 -3.48859221004909E-01
 Cartesian forces (fcart) [Ha/bohr]; max,rms= 8.98570E+02 1.92757E+02 (free atoms)
  1.78652908244244E+01 -2.39731147668752E+01  2.44382622345789E+02
 -1.05210476358006E+00 -1.16051426934276E+01 -1.00634034389064E+02
 -2.90316221035245E+00 -1.04976693781930E+01  1.70449673220425E+02
 -1.15388350270982E+01  5.12476298430359E+00 -8.74204189336473E+01
  2.21881468830917E+00 -1.76385590855807E+00 -5.61153187442301E+01
  2.13568780885979E+00  1.57699983952707E+01 -5.84948165156834E+01
  9.40067268725791E-01 -1.96448479923975E+00 -1.95759367892894E+00
 -1.05696902734107E+00  2.08000889186899E+00 -4.18994439244449E+01
  1.17104327934884E+00 -1.01932181541145E+01  2.56109836513723E+01
  1.60563953253829E+00 -1.68982503420166E+00  2.27679210587539E-01
  1.57465387861357E-02  5.94062062957039E-01  2.56158814980695E+01
  1.64974508252149E+00  4.83426441311337E-01 -2.72348573722578E+01
  4.11836452622336E+01 -1.98319377625177E+01 -3.33819458779895E+01
  1.07824521919186E+00  4.06630236943788E+01  1.41902640074047E+02
 -9.98899508615370E+00  5.51845763898504E+00  8.47525179349527E+01
  4.56844625741178E+02  8.98569705006434E+02 -1.06091217235198E+02
 -9.15159235026177E+00 -1.55186437398953E+01 -1.26086102747577E+02
 -4.86528972165262E+02 -8.83470654968320E+02 -1.22453075530706E+01
 -1.03140485376860E+00  1.12579653969915E+01  6.98209222547276E+01
 -3.45651576229917E+00  4.47136692841905E-01 -1.11201863217879E+02
 Reduced forces (fred)
 -1.55085016588663E+02  2.08105814668290E+02 -9.77530489383154E+03
  9.13311103168579E+00  1.00741922693107E+02  4.02536137556255E+03
  2.52017705156275E+01  9.11281683382179E+01 -6.81798692881699E+03
  1.00166319103234E+02 -4.44870425141426E+01  3.49681675734589E+03
 -1.92610865462742E+01  1.53116803710109E+01  2.24461274976920E+03
 -1.85394787311501E+01 -1.36896202069666E+02  2.33979266062734E+03
 -8.16053594635485E+00  1.70532996452405E+01  7.83037471571576E+01
  9.17533673254236E+00 -1.80561411885363E+01  1.67597775697780E+03
 -1.01655924993714E+01  8.84852881522374E+01 -1.02443934605489E+03
 -1.39382356540584E+01  1.46690331568978E+01 -9.10716842350155E+00
 -1.36692553894687E-01 -5.15693395611746E+00 -1.02463525992278E+03
 -1.43211071123525E+01 -4.19652825173545E+00  1.08939429489031E+03
 -3.57506987792397E+02  1.72157085328863E+02  1.33527783511958E+03
 -9.36003109876073E+00 -3.52987576086164E+02 -5.67610560296188E+03
  8.67124685438830E+01 -4.79046270725013E+01 -3.39010071739811E+03
 -3.96577682713402E+03 -7.80030389521985E+03  4.24364868940790E+03
  7.94431428741524E+01  1.34714242577283E+02  5.04344410990309E+03
  4.22346070157221E+03  7.66923206164899E+03  4.89812302122825E+02
  8.95341925459449E+00 -9.77281460182042E+01 -2.79283689018910E+03
  3.00053220293666E+01 -3.88150420322201E+00  4.44807452871514E+03
 Total energy (etotal) [Ha]=  5.83174479279171E+03

 Difference of energy with previous step (new-old):
           Absolute (Ha)= 7.19381E+03
           Relative     = 2.00000E+00

--- Iteration: ( 3/10) Internal Cycle: (1/1)
--------------------------------------------------------------------------------

---SELF-CONSISTENT-FIELD CONVERGENCE--------------------------------------------

     iter   Etot(hartree)      deltaE(h)  residm     vres2
 ETOT  1   8543.6930114623     8.544E+03 9.283E+02 1.574E+10
 ETOT  2   9532.3339879644     9.886E+02 4.503E+02 4.155E+10
 ETOT  3   937.54019246408    -8.595E+03 3.532E+03 5.723E+09
 ETOT  4   6805.5557487538     5.868E+03 1.168E+03 1.181E+10
 ETOT  5   4153.9152601102    -2.652E+03 4.078E+03 1.642E+10
 ETOT  6   7145.4522396359     2.992E+03 2.300E+02 1.105E+10
 ETOT  7   1032.1541857467    -6.113E+03 2.884E+03 7.222E+09
 ETOT  8   7817.0464025377     6.785E+03 3.382E+02 8.935E+09
 ETOT  9   4243.7231695203    -3.573E+03 5.258E+01 3.097E+09
 ETOT 10   3186.0261449888    -1.058E+03 1.124E+03 8.477E+09

 Cartesian components of stress tensor (hartree/bohr^3)
  sigma(1 1)= -1.26248971E+00  sigma(3 2)= -8.55195892E-04
  sigma(2 2)= -1.28753794E+00  sigma(3 1)=  2.96438464E-03
  sigma(3 3)=  1.32665170E+00  sigma(2 1)=  1.67457569E-02


 scprqt:  WARNING -
  nstep=   10 was not enough SCF cycles to converge;
  maximum energy difference=  1.058E+03 exceeds toldfe=  1.000E-02

