  ABINIT 8.6.3
  
  Give name for formatted input file: 
manualGeomOpt2.in
  Give name for formatted output file:
mamualGeomOpt2.out
  Give root name for generic input files:
manualGeomOpt2_i
  Give root name for generic output files:
manualGeomOpt2_o
  Give root name for generic temporary files:
manualGeomOpt2

.Version 8.6.3 of ABINIT 
.(sequential version, prepared for a x86_64_linux_gnu5.4 computer) 

.Copyright (C) 1998-2017 ABINIT group . 
 ABINIT comes with ABSOLUTELY NO WARRANTY.
 It is free software, and you are welcome to redistribute it
 under certain conditions (GNU General Public License,
 see ~abinit/COPYING or http://www.gnu.org/copyleft/gpl.txt).

 ABINIT is a project of the Universite Catholique de Louvain,
 Corning Inc. and other collaborators, see ~abinit/doc/developers/contributors.txt .
 Please read ~abinit/doc/users/acknowledgments.html for suggested
 acknowledgments of the ABINIT effort.
 For more information, see https://www.abinit.org .

.Starting date : Thu 26 Apr 2018.
- ( at 14h06 )
  

 ++++++++++++++++++++++++++++++++++++++++++++++++++++++++++++++++++++++++++++++

 === Build Information === 
  Version       : 8.6.3
  Build target  : x86_64_linux_gnu5.4
  Build date    : 20180412

 === Compiler Suite === 
  C compiler       : gnu5.4
  C++ compiler     : gnu5.4
  Fortran compiler : gnu5.4
  CFLAGS           :  -g -O2 -mtune=native -march=native
  CXXFLAGS         :  -g -O2 -mtune=native -march=native
  FCFLAGS          :  -g -ffree-line-length-none
  FC_LDFLAGS       : 

 === Optimizations === 
  Debug level        : basic
  Optimization level : standard
  Architecture       : unknown_unknown

 === Multicore === 
  Parallel build : no
  Parallel I/O   : no
  openMP support : no
  GPU support    : no

 === Connectors / Fallbacks === 
  Connectors on : yes
  Fallbacks on  : yes
  DFT flavor    : none
  FFT flavor    : none
  LINALG flavor : netlib-fallback
  MATH flavor   : none
  TIMER flavor  : abinit
  TRIO flavor   : none

 === Experimental features === 
  Bindings            : @enable_bindings@
  Exports             : no
  GW double-precision : no

 ++++++++++++++++++++++++++++++++++++++++++++++++++++++++++++++++++++++++++++++


 ++++++++++++++++++++++++++++++++++++++++++++++++++++++++++++++++++++++++++++++
 Default optimizations:
   -O2 -mtune=native -march=native


 Optimizations for 20_datashare:
   -O0


 ++++++++++++++++++++++++++++++++++++++++++++++++++++++++++++++++++++++++++++++


 ++++++++++++++++++++++++++++++++++++++++++++++++++++++++++++++++++++++++++++++
 CPP options activated during the build:

                    CC_GNU                   CXX_GNU                    FC_GNU
 
 HAVE_FC_ALLOCATABLE_DT...             HAVE_FC_ASYNC         HAVE_FC_BACKTRACE
 
  HAVE_FC_COMMAND_ARGUMENT      HAVE_FC_COMMAND_LINE        HAVE_FC_CONTIGUOUS
 
           HAVE_FC_CPUTIME              HAVE_FC_EXIT             HAVE_FC_FLUSH
 
             HAVE_FC_GAMMA            HAVE_FC_GETENV   HAVE_FC_IEEE_EXCEPTIONS
 
          HAVE_FC_INT_QUAD             HAVE_FC_IOMSG     HAVE_FC_ISO_C_BINDING
 
  HAVE_FC_ISO_FORTRAN_2008        HAVE_FC_LONG_LINES        HAVE_FC_MOVE_ALLOC
 
           HAVE_FC_PRIVATE         HAVE_FC_PROTECTED         HAVE_FC_STREAM_IO
 
            HAVE_FC_SYSTEM          HAVE_FORTRAN2003        HAVE_LIBPAW_ABINIT
 
      HAVE_LIBTETRA_ABINIT             HAVE_OS_LINUX         HAVE_TIMER_ABINIT
 
              USE_MACROAVE                                                      
 ++++++++++++++++++++++++++++++++++++++++++++++++++++++++++++++++++++++++++++++

- input  file    -> manualGeomOpt2.in
- output file    -> mamualGeomOpt2.out
- root for input  files -> manualGeomOpt2_i
- root for output files -> manualGeomOpt2_o

-instrng: 90 lines of input have been read from file manualGeomOpt2.in


 Please give name of formatted atomic psp file
 iofn2 : for atom type 1, psp file is ../../../Psps_for_tests/Ti.psp8

 Please give name of formatted atomic psp file
 iofn2 : for atom type 2, psp file is ../../../Psps_for_tests/O.psp8

 Please give name of formatted atomic psp file
 iofn2 : for atom type 3, psp file is ../../../Psps_for_tests/Pd.psp8
  read the values zionpsp= 12.0 , pspcod=   8 , lmax=   2
  read the values zionpsp=  6.0 , pspcod=   8 , lmax=   2
  read the values zionpsp= 18.0 , pspcod=   8 , lmax=   2

 inpspheads: deduce mpsang = 3, n1xccc = 2501.
 invars1 : treat image number: 1

 symlatt : the Bravais lattice is tP (primitive tetragonal)
  xcart  is defined in input file
 ingeo : takes atomic coordinates from input array xcart
 symfind : exit, nsym=1
   symrel matrices, symafm and tnons are :
   1       1   0   0     0   1   0     0   0   1       1      0.0000  0.0000  0.0000

 symlatt : the Bravais lattice is tP (primitive tetragonal)

 symlatt : the Bravais lattice is tP (primitive tetragonal)

--- !COMMENT
src_file: symbrav.F90
src_line: 201
message: |
    The Bravais lattice determined only from the primitive
    vectors, bravais(1)=  4, is more symmetric
    than the real one, iholohedry=  1, obtained by taking into
    account the atomic positions. Start deforming the primitive vector set.
...


 symlatt : the Bravais lattice is mC (one-face-centered monoclinic)

--- !COMMENT
src_file: symbrav.F90
src_line: 210
message: |
    The Bravais lattice determined from modified primitive
    vectors, bravais(1)=  2, has a lower symmetry than before,
    but is still more symmetric than the real one, iholohedry=  1
    obtained by taking into account the atomic positions.
...


 symlatt : the Bravais lattice is aP (primitive triclinic)
 symspgr : spgroup=   1  P1   (=C1^1)
 ingeo : angdeg(1:3)=   90.00000000   90.00000000   90.00000000
 invars1 : treat image number: 1

 symlatt : the Bravais lattice is tP (primitive tetragonal)
  xcart  is defined in input file
 ingeo : takes atomic coordinates from input array xcart
 symfind : exit, nsym=1
   symrel matrices, symafm and tnons are :
   1       1   0   0     0   1   0     0   0   1       1      0.0000  0.0000  0.0000

 symlatt : the Bravais lattice is tP (primitive tetragonal)

 symlatt : the Bravais lattice is tP (primitive tetragonal)

--- !COMMENT
src_file: symbrav.F90
src_line: 201
message: |
    The Bravais lattice determined only from the primitive
    vectors, bravais(1)=  4, is more symmetric
    than the real one, iholohedry=  1, obtained by taking into
    account the atomic positions. Start deforming the primitive vector set.
...


 symlatt : the Bravais lattice is mC (one-face-centered monoclinic)

--- !COMMENT
src_file: symbrav.F90
src_line: 210
message: |
    The Bravais lattice determined from modified primitive
    vectors, bravais(1)=  2, has a lower symmetry than before,
    but is still more symmetric than the real one, iholohedry=  1
    obtained by taking into account the atomic positions.
...


 symlatt : the Bravais lattice is aP (primitive triclinic)
 symspgr : spgroup=   1  P1   (=C1^1)
 ingeo : angdeg(1:3)=   90.00000000   90.00000000   90.00000000
 invars1 : treat image number: 1

 symlatt : the Bravais lattice is tP (primitive tetragonal)
  xcart  is defined in input file
 ingeo : takes atomic coordinates from input array xcart
 symfind : exit, nsym=1
   symrel matrices, symafm and tnons are :
   1       1   0   0     0   1   0     0   0   1       1      0.0000  0.0000  0.0000

 symlatt : the Bravais lattice is tP (primitive tetragonal)

 symlatt : the Bravais lattice is tP (primitive tetragonal)

--- !COMMENT
src_file: symbrav.F90
src_line: 201
message: |
    The Bravais lattice determined only from the primitive
    vectors, bravais(1)=  4, is more symmetric
    than the real one, iholohedry=  1, obtained by taking into
    account the atomic positions. Start deforming the primitive vector set.
...


 symlatt : the Bravais lattice is mC (one-face-centered monoclinic)

--- !COMMENT
src_file: symbrav.F90
src_line: 210
message: |
    The Bravais lattice determined from modified primitive
    vectors, bravais(1)=  2, has a lower symmetry than before,
    but is still more symmetric than the real one, iholohedry=  1
    obtained by taking into account the atomic positions.
...


 symlatt : the Bravais lattice is aP (primitive triclinic)
 symspgr : spgroup=   1  P1   (=C1^1)
 ingeo : angdeg(1:3)=   90.00000000   90.00000000   90.00000000
 invars1 : treat image number: 1

 symlatt : the Bravais lattice is tP (primitive tetragonal)
  xcart  is defined in input file
 ingeo : takes atomic coordinates from input array xcart
 symfind : exit, nsym=1
   symrel matrices, symafm and tnons are :
   1       1   0   0     0   1   0     0   0   1       1      0.0000  0.0000  0.0000

 symlatt : the Bravais lattice is tP (primitive tetragonal)

 symlatt : the Bravais lattice is tP (primitive tetragonal)

--- !COMMENT
src_file: symbrav.F90
src_line: 201
message: |
    The Bravais lattice determined only from the primitive
    vectors, bravais(1)=  4, is more symmetric
    than the real one, iholohedry=  1, obtained by taking into
    account the atomic positions. Start deforming the primitive vector set.
...


 symlatt : the Bravais lattice is mC (one-face-centered monoclinic)

--- !COMMENT
src_file: symbrav.F90
src_line: 210
message: |
    The Bravais lattice determined from modified primitive
    vectors, bravais(1)=  2, has a lower symmetry than before,
    but is still more symmetric than the real one, iholohedry=  1
    obtained by taking into account the atomic positions.
...


 symlatt : the Bravais lattice is aP (primitive triclinic)
 symspgr : spgroup=   1  P1   (=C1^1)
 ingeo : angdeg(1:3)=   90.00000000   90.00000000   90.00000000
 invars1 : treat image number: 1

 symlatt : the Bravais lattice is tP (primitive tetragonal)
  xcart  is defined in input file
 ingeo : takes atomic coordinates from input array xcart
 symfind : exit, nsym=1
   symrel matrices, symafm and tnons are :
   1       1   0   0     0   1   0     0   0   1       1      0.0000  0.0000  0.0000

 symlatt : the Bravais lattice is tP (primitive tetragonal)

 symlatt : the Bravais lattice is tP (primitive tetragonal)

--- !COMMENT
src_file: symbrav.F90
src_line: 201
message: |
    The Bravais lattice determined only from the primitive
    vectors, bravais(1)=  4, is more symmetric
    than the real one, iholohedry=  1, obtained by taking into
    account the atomic positions. Start deforming the primitive vector set.
...


 symlatt : the Bravais lattice is mC (one-face-centered monoclinic)

--- !COMMENT
src_file: symbrav.F90
src_line: 210
message: |
    The Bravais lattice determined from modified primitive
    vectors, bravais(1)=  2, has a lower symmetry than before,
    but is still more symmetric than the real one, iholohedry=  1
    obtained by taking into account the atomic positions.
...


 symlatt : the Bravais lattice is aP (primitive triclinic)
 symspgr : spgroup=   1  P1   (=C1^1)
 ingeo : angdeg(1:3)=   90.00000000   90.00000000   90.00000000
 invars2: take the default value of fband=  1.25000000E-01
 chkneu : initialized the occupation numbers for occopt=    1, spin-unpolarized or antiferromagnetic case :
  2.00  2.00  2.00  2.00  2.00  2.00  2.00  2.00  2.00  2.00  2.00  2.00
  2.00  2.00  2.00  2.00  2.00  2.00  2.00  2.00  2.00  2.00  2.00  2.00
  2.00  2.00  2.00  2.00  2.00  2.00  2.00  2.00  2.00  2.00  2.00  2.00
  2.00  2.00  2.00  2.00  2.00  2.00  2.00  2.00  2.00  2.00  2.00  2.00
  2.00  2.00  2.00  2.00  2.00  2.00  2.00  2.00  2.00  2.00  2.00  2.00
  0.00  0.00
 invars2: take the default value of fband=  1.25000000E-01
 chkneu : initialized the occupation numbers for occopt=    1, spin-unpolarized or antiferromagnetic case :
  2.00  2.00  2.00  2.00  2.00  2.00  2.00  2.00  2.00  2.00  2.00  2.00
  2.00  2.00  2.00  2.00  2.00  2.00  2.00  2.00  2.00  2.00  2.00  2.00
  2.00  2.00  2.00  2.00  2.00  2.00  2.00  2.00  2.00  2.00  2.00  2.00
  2.00  2.00  2.00  2.00  2.00  2.00  2.00  2.00  2.00  2.00  2.00  2.00
  2.00  2.00  2.00  2.00  2.00  2.00  2.00  2.00  2.00  2.00  2.00  2.00
  0.00  0.00
 invars2: take the default value of fband=  1.25000000E-01
 chkneu : initialized the occupation numbers for occopt=    1, spin-unpolarized or antiferromagnetic case :
  2.00  2.00  2.00  2.00  2.00  2.00  2.00  2.00  2.00  2.00  2.00  2.00
  2.00  2.00  2.00  2.00  2.00  2.00  2.00  2.00  2.00  2.00  2.00  2.00
  2.00  2.00  2.00  2.00  2.00  2.00  2.00  2.00  2.00  2.00  2.00  2.00
  2.00  2.00  2.00  2.00  2.00  2.00  2.00  2.00  2.00  2.00  2.00  2.00
  2.00  2.00  2.00  2.00  2.00  2.00  2.00  2.00  2.00  2.00  2.00  2.00
  0.00  0.00
 invars2: take the default value of fband=  1.25000000E-01
 chkneu : initialized the occupation numbers for occopt=    1, spin-unpolarized or antiferromagnetic case :
  2.00  2.00  2.00  2.00  2.00  2.00  2.00  2.00  2.00  2.00  2.00  2.00
  2.00  2.00  2.00  2.00  2.00  2.00  2.00  2.00  2.00  2.00  2.00  2.00
  2.00  2.00  2.00  2.00  2.00  2.00  2.00  2.00  2.00  2.00  2.00  2.00
  2.00  2.00  2.00  2.00  2.00  2.00  2.00  2.00  2.00  2.00  2.00  2.00
  2.00  2.00  2.00  2.00  2.00  2.00  2.00  2.00  2.00  2.00  2.00  2.00
  0.00  0.00
 invars2: take the default value of fband=  1.25000000E-01
 chkneu : initialized the occupation numbers for occopt=    1, spin-unpolarized or antiferromagnetic case :
  2.00  2.00  2.00  2.00  2.00  2.00  2.00  2.00  2.00  2.00  2.00  2.00
  2.00  2.00  2.00  2.00  2.00  2.00  2.00  2.00  2.00  2.00  2.00  2.00
  2.00  2.00  2.00  2.00  2.00  2.00  2.00  2.00  2.00  2.00  2.00  2.00
  2.00  2.00  2.00  2.00  2.00  2.00  2.00  2.00  2.00  2.00  2.00  2.00
  2.00  2.00  2.00  2.00  2.00  2.00  2.00  2.00  2.00  2.00  2.00  2.00
  0.00  0.00
mpi_setup: mkmem  undefined in the input file.Use default mkmem  = nkpt
 mpi_setup: With nkpt_me=2 and mkmem  = 2, ground state wf handled in core.
mpi_setup: mkqmem undefined in the input file.Use default mkqmem = nkpt
 mpi_setup: With nkpt_me=2 and mkqmem = 2, ground state wf handled in core.
mpi_setup: mk1mem undefined in the input file.Use default mk1mem = nkpt
 mpi_setup: With nkpt_me=2 and mk1mem = 2, ground state wf handled in core.
 For input ecut=  6.000000E+01 best grid ngfft=      64      64     180
       max ecut=  6.395504E+01

 ==== FFT mesh ====
  FFT mesh divisions ........................    64   64  180
  Augmented FFT divisions ...................    65   65  180
  FFT algorithm .............................   112
  FFT cache size ............................    16
 getmpw: optimal value of mpw= 41884
mpi_setup: mkmem  undefined in the input file.Use default mkmem  = nkpt
 mpi_setup: With nkpt_me=2 and mkmem  = 2, ground state wf handled in core.
mpi_setup: mkqmem undefined in the input file.Use default mkqmem = nkpt
 mpi_setup: With nkpt_me=2 and mkqmem = 2, ground state wf handled in core.
mpi_setup: mk1mem undefined in the input file.Use default mk1mem = nkpt
 mpi_setup: With nkpt_me=2 and mk1mem = 2, ground state wf handled in core.
 For input ecut=  6.000000E+01 best grid ngfft=      64      64     180
       max ecut=  6.299889E+01

 ==== FFT mesh ====
  FFT mesh divisions ........................    64   64  180
  Augmented FFT divisions ...................    65   65  180
  FFT algorithm .............................   112
  FFT cache size ............................    16
 getmpw: optimal value of mpw= 42228
mpi_setup: mkmem  undefined in the input file.Use default mkmem  = nkpt
 mpi_setup: With nkpt_me=2 and mkmem  = 2, ground state wf handled in core.
mpi_setup: mkqmem undefined in the input file.Use default mkqmem = nkpt
 mpi_setup: With nkpt_me=2 and mkqmem = 2, ground state wf handled in core.
mpi_setup: mk1mem undefined in the input file.Use default mk1mem = nkpt
 mpi_setup: With nkpt_me=2 and mk1mem = 2, ground state wf handled in core.
 For input ecut=  6.000000E+01 best grid ngfft=      64      64     180
       max ecut=  6.206403E+01

 ==== FFT mesh ====
  FFT mesh divisions ........................    64   64  180
  Augmented FFT divisions ...................    65   65  180
  FFT algorithm .............................   112
  FFT cache size ............................    16
 getmpw: optimal value of mpw= 42496
mpi_setup: mkmem  undefined in the input file.Use default mkmem  = nkpt
 mpi_setup: With nkpt_me=2 and mkmem  = 2, ground state wf handled in core.
mpi_setup: mkqmem undefined in the input file.Use default mkqmem = nkpt
 mpi_setup: With nkpt_me=2 and mkqmem = 2, ground state wf handled in core.
mpi_setup: mk1mem undefined in the input file.Use default mk1mem = nkpt
 mpi_setup: With nkpt_me=2 and mk1mem = 2, ground state wf handled in core.
 For input ecut=  6.000000E+01 best grid ngfft=      64      64     180
       max ecut=  6.114983E+01

 ==== FFT mesh ====
  FFT mesh divisions ........................    64   64  180
  Augmented FFT divisions ...................    65   65  180
  FFT algorithm .............................   112
  FFT cache size ............................    16
 getmpw: optimal value of mpw= 42808
mpi_setup: mkmem  undefined in the input file.Use default mkmem  = nkpt
 mpi_setup: With nkpt_me=2 and mkmem  = 2, ground state wf handled in core.
mpi_setup: mkqmem undefined in the input file.Use default mkqmem = nkpt
 mpi_setup: With nkpt_me=2 and mkqmem = 2, ground state wf handled in core.
mpi_setup: mk1mem undefined in the input file.Use default mk1mem = nkpt
 mpi_setup: With nkpt_me=2 and mk1mem = 2, ground state wf handled in core.
 For input ecut=  6.000000E+01 best grid ngfft=      64      64     180
       max ecut=  6.025567E+01

 ==== FFT mesh ====
  FFT mesh divisions ........................    64   64  180
  Augmented FFT divisions ...................    65   65  180
  FFT algorithm .............................   112
  FFT cache size ............................    16
 getmpw: optimal value of mpw= 43156

 DATASET    1 : space group P1 (#  1); Bravais aP (primitive triclinic)

 getdim_nloc : deduce lmnmax  =  18, lnmax  =   6,
                      lmnmaxso=  18, lnmaxso=   6.
memory : analysis of memory needs
================================================================================
 Values of the parameters that define the memory need for DATASET  1.
     intxc =       0    ionmov =       0      iscf =       7    lmnmax =       6
     lnmax =       6     mgfft =     180  mpssoang =       3    mqgrid =    8718
     natom =      10  nloc_mem =       1    nspden =       1   nspinor =       1
    nsppol =       1      nsym =       1    n1xccc =    2501    ntypat =       3
    occopt =       1   xclevel =       2
-    mband =          62        mffmem =           1         mkmem =           2
       mpw =       41884          nfft =      737280          nkpt =           2
================================================================================
P This job should need less than                     303.659 Mbytes of memory.
  Rough estimation (10% accuracy) of disk space for files :
_ WF disk file :     79.250 Mbytes ; DEN or POT disk file :      5.627 Mbytes.
================================================================================

 Biggest array : f_fftgr(disk), with     90.0020 MBytes.
 memana : allocated an array of     90.002 Mbytes, for testing purposes.
 memana: allocated     303.659Mbytes, for testing purposes. 
 The job will continue.

 DATASET    2 : space group P1 (#  1); Bravais aP (primitive triclinic)

 getdim_nloc : deduce lmnmax  =  18, lnmax  =   6,
                      lmnmaxso=  18, lnmaxso=   6.
memory : analysis of memory needs
================================================================================
 Values of the parameters that define the memory need for DATASET  2.
     intxc =       0    ionmov =       0      iscf =       7    lmnmax =       6
     lnmax =       6     mgfft =     180  mpssoang =       3    mqgrid =    8784
     natom =      10  nloc_mem =       1    nspden =       1   nspinor =       1
    nsppol =       1      nsym =       1    n1xccc =    2501    ntypat =       3
    occopt =       1   xclevel =       2
-    mband =          62        mffmem =           1         mkmem =           2
       mpw =       42228          nfft =      737280          nkpt =           2
================================================================================
P This job should need less than                     304.340 Mbytes of memory.
  Rough estimation (10% accuracy) of disk space for files :
_ WF disk file :     79.901 Mbytes ; DEN or POT disk file :      5.627 Mbytes.
================================================================================

 Biggest array : f_fftgr(disk), with     90.0020 MBytes.
 memana : allocated an array of     90.002 Mbytes, for testing purposes.
 memana: allocated     304.340Mbytes, for testing purposes. 
 The job will continue.

 DATASET    3 : space group P1 (#  1); Bravais aP (primitive triclinic)

 getdim_nloc : deduce lmnmax  =  18, lnmax  =   6,
                      lmnmaxso=  18, lnmaxso=   6.
memory : analysis of memory needs
================================================================================
 Values of the parameters that define the memory need for DATASET  3.
     intxc =       0    ionmov =       0      iscf =       7    lmnmax =       6
     lnmax =       6     mgfft =     180  mpssoang =       3    mqgrid =    8850
     natom =      10  nloc_mem =       1    nspden =       1   nspinor =       1
    nsppol =       1      nsym =       1    n1xccc =    2501    ntypat =       3
    occopt =       1   xclevel =       2
-    mband =          62        mffmem =           1         mkmem =           2
       mpw =       42496          nfft =      737280          nkpt =           2
================================================================================
P This job should need less than                     304.875 Mbytes of memory.
  Rough estimation (10% accuracy) of disk space for files :
_ WF disk file :     80.408 Mbytes ; DEN or POT disk file :      5.627 Mbytes.
================================================================================

 Biggest array : f_fftgr(disk), with     90.0020 MBytes.
 memana : allocated an array of     90.002 Mbytes, for testing purposes.
 memana: allocated     304.875Mbytes, for testing purposes. 
 The job will continue.

 DATASET    4 : space group P1 (#  1); Bravais aP (primitive triclinic)

 getdim_nloc : deduce lmnmax  =  18, lnmax  =   6,
                      lmnmaxso=  18, lnmaxso=   6.
memory : analysis of memory needs
================================================================================
 Values of the parameters that define the memory need for DATASET  4.
     intxc =       0    ionmov =       0      iscf =       7    lmnmax =       6
     lnmax =       6     mgfft =     180  mpssoang =       3    mqgrid =    8915
     natom =      10  nloc_mem =       1    nspden =       1   nspinor =       1
    nsppol =       1      nsym =       1    n1xccc =    2501    ntypat =       3
    occopt =       1   xclevel =       2
-    mband =          62        mffmem =           1         mkmem =           2
       mpw =       42808          nfft =      737280          nkpt =           2
================================================================================
P This job should need less than                     305.494 Mbytes of memory.
  Rough estimation (10% accuracy) of disk space for files :
_ WF disk file :     80.999 Mbytes ; DEN or POT disk file :      5.627 Mbytes.
================================================================================

 Biggest array : f_fftgr(disk), with     90.0020 MBytes.
 memana : allocated an array of     90.002 Mbytes, for testing purposes.
 memana: allocated     305.494Mbytes, for testing purposes. 
 The job will continue.

 DATASET    5 : space group P1 (#  1); Bravais aP (primitive triclinic)

 getdim_nloc : deduce lmnmax  =  18, lnmax  =   6,
                      lmnmaxso=  18, lnmaxso=   6.
memory : analysis of memory needs
================================================================================
 Values of the parameters that define the memory need for DATASET  5.
     intxc =       0    ionmov =       0      iscf =       7    lmnmax =       6
     lnmax =       6     mgfft =     180  mpssoang =       3    mqgrid =    8981
     natom =      10  nloc_mem =       1    nspden =       1   nspinor =       1
    nsppol =       1      nsym =       1    n1xccc =    2501    ntypat =       3
    occopt =       1   xclevel =       2
-    mband =          62        mffmem =           1         mkmem =           2
       mpw =       43156          nfft =      737280          nkpt =           2
================================================================================
P This job should need less than                     306.183 Mbytes of memory.
  Rough estimation (10% accuracy) of disk space for files :
_ WF disk file :     81.657 Mbytes ; DEN or POT disk file :      5.627 Mbytes.
================================================================================

 Biggest array : f_fftgr(disk), with     90.0020 MBytes.
 memana : allocated an array of     90.002 Mbytes, for testing purposes.
 memana: allocated     306.183Mbytes, for testing purposes. 
 The job will continue.
--------------------------------------------------------------------------------
------------- Echo of variables that govern the present computation ------------
--------------------------------------------------------------------------------
-
- outvars: echo of selected default values                                      
-   iomode0 =  0 , fftalg0 =112 , wfoptalg0 =  0
-
- outvars: echo of global parameters not present in the input file              
-  max_nthreads =    0
-
 -outvars: echo values of preprocessed input variables --------
            acell1     8.6808000000E+00  8.6808000000E+00  2.5000000000E+01 Bohr
            acell2     8.6808000000E+00  8.6808000000E+00  2.5189000000E+01 Bohr
            acell3     8.6808000000E+00  8.6808000000E+00  2.5378000000E+01 Bohr
            acell4     8.6808000000E+00  8.6808000000E+00  2.5567000000E+01 Bohr
            acell5     8.6808000000E+00  8.6808000000E+00  2.5756000000E+01 Bohr
              amu      4.78800000E+01  1.59994000E+01  1.06420000E+02
           diemac      1.20000000E+01
             ecut      6.00000000E+01 Hartree
-          fftalg         112
              ixc          11
           jdtset        1    2    3    4    5
              kpt      1.25000000E-01  5.00000000E-01  5.00000000E-01
                       3.75000000E-01  5.00000000E-01  5.00000000E-01
           kptopt           2
         kptrlatt        4    0    0      0    1    0      0    0    1
          kptrlen      8.68080000E+00
P           mkmem           2
            natom          10
            nband          62
           ndtset           5
            ngfft          64      64     180
             nkpt           2
            nstep          40
             nsym           1
           ntypat           3
              occ      2.000000  2.000000  2.000000  2.000000  2.000000  2.000000
                       2.000000  2.000000  2.000000  2.000000  2.000000  2.000000
                       2.000000  2.000000  2.000000  2.000000  2.000000  2.000000
                       2.000000  2.000000  2.000000  2.000000  2.000000  2.000000
                       2.000000  2.000000  2.000000  2.000000  2.000000  2.000000
                       2.000000  2.000000  2.000000  2.000000  2.000000  2.000000
                       2.000000  2.000000  2.000000  2.000000  2.000000  2.000000
                       2.000000  2.000000  2.000000  2.000000  2.000000  2.000000
                       2.000000  2.000000  2.000000  2.000000  2.000000  2.000000
                       2.000000  2.000000  2.000000  2.000000  2.000000  2.000000
                       0.000000  0.000000
           shiftk      5.00000000E-01  5.00000000E-01  5.00000000E-01
          spgroup           1
           toldfe      1.00000000E-02 Hartree
            typat      1  1  2  2  2  2  3  3  3  3
              wtk        0.50000    0.50000
           xangst1     0.0000000000E+00  0.0000000000E+00  0.0000000000E+00
                       2.2968407562E+00  1.4793678043E+00  2.2968407562E+00
                       1.4240158683E+00  0.0000000000E+00  1.4240158683E+00
                       3.1696656440E+00  0.0000000000E+00  3.1696656440E+00
                       8.7282488785E-01  1.4793678043E+00  3.7208566245E+00
                       3.7208566245E+00  1.4793678043E+00  8.7282488785E-01
                       8.7282488785E-01  0.0000000000E+00  7.2395675553E+00
                       1.9453612542E+00  1.3755961537E+00  8.6151637090E+00
                       1.9453612542E+00 -1.3755961537E+00  8.6151637090E+00
                       0.0000000000E+00  0.0000000000E+00  9.9907069450E+00
           xangst2     0.0000000000E+00  0.0000000000E+00  0.0000000000E+00
                       2.2968407562E+00  1.4793678043E+00  2.2968407562E+00
                       1.4240158683E+00  0.0000000000E+00  1.4240158683E+00
                       3.1696656440E+00  0.0000000000E+00  3.1696656440E+00
                       8.7282488785E-01  1.4793678043E+00  3.7208566245E+00
                       3.7208566245E+00  1.4793678043E+00  8.7282488785E-01
                       8.7282488785E-01  0.0000000000E+00  7.3395820477E+00
                       1.9453612542E+00  1.3755961537E+00  8.7151782014E+00
                       1.9453612542E+00 -1.3755961537E+00  8.7151782014E+00
                       0.0000000000E+00  0.0000000000E+00  1.0090721437E+01
           xangst3     0.0000000000E+00  0.0000000000E+00  0.0000000000E+00
                       2.2968407562E+00  1.4793678043E+00  2.2968407562E+00
                       1.4240158683E+00  0.0000000000E+00  1.4240158683E+00
                       3.1696656440E+00  0.0000000000E+00  3.1696656440E+00
                       8.7282488785E-01  1.4793678043E+00  3.7208566245E+00
                       3.7208566245E+00  1.4793678043E+00  8.7282488785E-01
                       8.7282488785E-01  0.0000000000E+00  7.4395965401E+00
                       1.9453612542E+00  1.3755961537E+00  8.8151926939E+00
                       1.9453612542E+00 -1.3755961537E+00  8.8151926939E+00
                       0.0000000000E+00  0.0000000000E+00  1.0190735930E+01
           xangst4     0.0000000000E+00  0.0000000000E+00  0.0000000000E+00
                       2.2968407562E+00  1.4793678043E+00  2.2968407562E+00
                       1.4240158683E+00  0.0000000000E+00  1.4240158683E+00
                       3.1696656440E+00  0.0000000000E+00  3.1696656440E+00
                       8.7282488785E-01  1.4793678043E+00  3.7208566245E+00
                       3.7208566245E+00  1.4793678043E+00  8.7282488785E-01
                       8.7282488785E-01  0.0000000000E+00  7.5396110325E+00
                       1.9453612542E+00  1.3755961537E+00  8.9152071863E+00
                       1.9453612542E+00 -1.3755961537E+00  8.9152071863E+00
                       0.0000000000E+00  0.0000000000E+00  1.0290750422E+01
           xangst5     0.0000000000E+00  0.0000000000E+00  0.0000000000E+00
                       2.2968407562E+00  1.4793678043E+00  2.2968407562E+00
                       1.4240158683E+00  0.0000000000E+00  1.4240158683E+00
                       3.1696656440E+00  0.0000000000E+00  3.1696656440E+00
                       8.7282488785E-01  1.4793678043E+00  3.7208566245E+00
                       3.7208566245E+00  1.4793678043E+00  8.7282488785E-01
                       8.7282488785E-01  0.0000000000E+00  7.6396255250E+00
                       1.9453612542E+00  1.3755961537E+00  9.0152216787E+00
                       1.9453612542E+00 -1.3755961537E+00  9.0152216787E+00
                       0.0000000000E+00  0.0000000000E+00  1.0390764915E+01
            xcart1     0.0000000000E+00  0.0000000000E+00  0.0000000000E+00
                       4.3404000000E+00  2.7956000000E+00  4.3404000000E+00
                       2.6910000000E+00  0.0000000000E+00  2.6910000000E+00
                       5.9898000000E+00  0.0000000000E+00  5.9898000000E+00
                       1.6494000000E+00  2.7956000000E+00  7.0314000000E+00
                       7.0314000000E+00  2.7956000000E+00  1.6494000000E+00
                       1.6494000000E+00  0.0000000000E+00  1.3680800000E+01
                       3.6762000000E+00  2.5995000000E+00  1.6280300000E+01
                       3.6762000000E+00 -2.5995000000E+00  1.6280300000E+01
                       0.0000000000E+00  0.0000000000E+00  1.8879700000E+01
            xcart2     0.0000000000E+00  0.0000000000E+00  0.0000000000E+00
                       4.3404000000E+00  2.7956000000E+00  4.3404000000E+00
                       2.6910000000E+00  0.0000000000E+00  2.6910000000E+00
                       5.9898000000E+00  0.0000000000E+00  5.9898000000E+00
                       1.6494000000E+00  2.7956000000E+00  7.0314000000E+00
                       7.0314000000E+00  2.7956000000E+00  1.6494000000E+00
                       1.6494000000E+00  0.0000000000E+00  1.3869800000E+01
                       3.6762000000E+00  2.5995000000E+00  1.6469300000E+01
                       3.6762000000E+00 -2.5995000000E+00  1.6469300000E+01
                       0.0000000000E+00  0.0000000000E+00  1.9068700000E+01
            xcart3     0.0000000000E+00  0.0000000000E+00  0.0000000000E+00
                       4.3404000000E+00  2.7956000000E+00  4.3404000000E+00
                       2.6910000000E+00  0.0000000000E+00  2.6910000000E+00
                       5.9898000000E+00  0.0000000000E+00  5.9898000000E+00
                       1.6494000000E+00  2.7956000000E+00  7.0314000000E+00
                       7.0314000000E+00  2.7956000000E+00  1.6494000000E+00
                       1.6494000000E+00  0.0000000000E+00  1.4058800000E+01
                       3.6762000000E+00  2.5995000000E+00  1.6658300000E+01
                       3.6762000000E+00 -2.5995000000E+00  1.6658300000E+01
                       0.0000000000E+00  0.0000000000E+00  1.9257700000E+01
            xcart4     0.0000000000E+00  0.0000000000E+00  0.0000000000E+00
                       4.3404000000E+00  2.7956000000E+00  4.3404000000E+00
                       2.6910000000E+00  0.0000000000E+00  2.6910000000E+00
                       5.9898000000E+00  0.0000000000E+00  5.9898000000E+00
                       1.6494000000E+00  2.7956000000E+00  7.0314000000E+00
                       7.0314000000E+00  2.7956000000E+00  1.6494000000E+00
                       1.6494000000E+00  0.0000000000E+00  1.4247800000E+01
                       3.6762000000E+00  2.5995000000E+00  1.6847300000E+01
                       3.6762000000E+00 -2.5995000000E+00  1.6847300000E+01
                       0.0000000000E+00  0.0000000000E+00  1.9446700000E+01
            xcart5     0.0000000000E+00  0.0000000000E+00  0.0000000000E+00
                       4.3404000000E+00  2.7956000000E+00  4.3404000000E+00
                       2.6910000000E+00  0.0000000000E+00  2.6910000000E+00
                       5.9898000000E+00  0.0000000000E+00  5.9898000000E+00
                       1.6494000000E+00  2.7956000000E+00  7.0314000000E+00
                       7.0314000000E+00  2.7956000000E+00  1.6494000000E+00
                       1.6494000000E+00  0.0000000000E+00  1.4436800000E+01
                       3.6762000000E+00  2.5995000000E+00  1.7036300000E+01
                       3.6762000000E+00 -2.5995000000E+00  1.7036300000E+01
                       0.0000000000E+00  0.0000000000E+00  1.9635700000E+01
             xred1     0.0000000000E+00  0.0000000000E+00  0.0000000000E+00
                       5.0000000000E-01  3.2204405124E-01  1.7361600000E-01
                       3.0999447056E-01  0.0000000000E+00  1.0764000000E-01
                       6.9000552944E-01  0.0000000000E+00  2.3959200000E-01
                       1.9000552944E-01  3.2204405124E-01  2.8125600000E-01
                       8.0999447056E-01  3.2204405124E-01  6.5976000000E-02
                       1.9000552944E-01  0.0000000000E+00  5.4723200000E-01
                       4.2348631463E-01  2.9945396738E-01  6.5121200000E-01
                       4.2348631463E-01 -2.9945396738E-01  6.5121200000E-01
                       0.0000000000E+00  0.0000000000E+00  7.5518800000E-01
             xred2     0.0000000000E+00  0.0000000000E+00  0.0000000000E+00
                       5.0000000000E-01  3.2204405124E-01  1.7231331137E-01
                       3.0999447056E-01  0.0000000000E+00  1.0683234745E-01
                       6.9000552944E-01  0.0000000000E+00  2.3779427528E-01
                       1.9000552944E-01  3.2204405124E-01  2.7914565882E-01
                       8.0999447056E-01  3.2204405124E-01  6.5480963913E-02
                       1.9000552944E-01  0.0000000000E+00  5.5062924292E-01
                       4.2348631463E-01  2.9945396738E-01  6.5382905236E-01
                       4.2348631463E-01 -2.9945396738E-01  6.5382905236E-01
                       0.0000000000E+00  0.0000000000E+00  7.5702489182E-01
             xred3     0.0000000000E+00  0.0000000000E+00  0.0000000000E+00
                       5.0000000000E-01  3.2204405124E-01  1.7103002601E-01
                       3.0999447056E-01  0.0000000000E+00  1.0603672472E-01
                       6.9000552944E-01  0.0000000000E+00  2.3602332729E-01
                       1.9000552944E-01  3.2204405124E-01  2.7706675073E-01
                       8.0999447056E-01  3.2204405124E-01  6.4993301285E-02
                       1.9000552944E-01  0.0000000000E+00  5.5397588462E-01
                       4.2348631463E-01  2.9945396738E-01  6.5640712428E-01
                       4.2348631463E-01 -2.9945396738E-01  6.5640712428E-01
                       0.0000000000E+00  0.0000000000E+00  7.5883442352E-01
             xred4     0.0000000000E+00  0.0000000000E+00  0.0000000000E+00
                       5.0000000000E-01  3.2204405124E-01  1.6976571362E-01
                       3.0999447056E-01  0.0000000000E+00  1.0525286502E-01
                       6.9000552944E-01  0.0000000000E+00  2.3427856221E-01
                       1.9000552944E-01  3.2204405124E-01  2.7501857864E-01
                       8.0999447056E-01  3.2204405124E-01  6.4512848594E-02
                       1.9000552944E-01  0.0000000000E+00  5.5727304729E-01
                       4.2348631463E-01  2.9945396738E-01  6.5894708022E-01
                       4.2348631463E-01 -2.9945396738E-01  6.5894708022E-01
                       0.0000000000E+00  0.0000000000E+00  7.6061720186E-01
             xred5     0.0000000000E+00  0.0000000000E+00  0.0000000000E+00
                       5.0000000000E-01  3.2204405124E-01  1.6851995651E-01
                       3.0999447056E-01  0.0000000000E+00  1.0448050940E-01
                       6.9000552944E-01  0.0000000000E+00  2.3255940363E-01
                       1.9000552944E-01  3.2204405124E-01  2.7300046591E-01
                       8.0999447056E-01  3.2204405124E-01  6.4039447119E-02
                       1.9000552944E-01  0.0000000000E+00  5.6052182016E-01
                       4.2348631463E-01  2.9945396738E-01  6.6144975928E-01
                       4.2348631463E-01 -2.9945396738E-01  6.6144975928E-01
                       0.0000000000E+00  0.0000000000E+00  7.6237381581E-01
            znucl       22.00000    8.00000   46.00000

================================================================================

 chkinp: Checking input parameters for consistency, jdtset=   1.

 chkinp: Checking input parameters for consistency, jdtset=   2.

 chkinp: Checking input parameters for consistency, jdtset=   3.

 chkinp: Checking input parameters for consistency, jdtset=   4.

 chkinp: Checking input parameters for consistency, jdtset=   5.
 DATA TYPE INFORMATION: 
 REAL:      Data type name: REAL(DP) 
            Kind value:      8
            Precision:      15
            Smallest nonnegligible quantity relative to 1:  0.22204460E-15
            Smallest positive number:                       0.22250739-307
            Largest representable number:                   0.17976931+309
 INTEGER:   Data type name: INTEGER(default) 
            Kind value: 4
            Bit size:   32
            Largest representable number: 2147483647
 LOGICAL:   Data type name: LOGICAL 
            Kind value: 4
 CHARACTER: Data type name: CHARACTER             Kind value: 1

  ==== OpenMP parallelism is OFF ====
 
  MPI-IO support is OFF

================================================================================
== DATASET  1 ==================================================================
-   nproc =    1


 getdim_nloc : deduce lmnmax  =  18, lnmax  =   6,
                      lmnmaxso=  18, lnmaxso=   6.
 Exchange-correlation functional for the present dataset will be:
  GGA: Perdew-Burke-Ernzerhof functional - ixc=11
 Citation for XC functional:
  J.P.Perdew, K.Burke, M.Ernzerhof, PRL 77, 3865 (1996)

 Unit cell volume ucvol=  1.8839072E+03 bohr^3
 Angles (23,13,12)=  9.00000000E+01  9.00000000E+01  9.00000000E+01 degrees

 getcut: wavevector=  0.0000  0.0000  0.0000  ngfft=  64  64 180
         ecut(hartree)=     60.000   => boxcut(ratio)=   2.06487
- pspini: atom type   1  psp file is ../../../Psps_for_tests/Ti.psp8
- pspatm: opening atomic psp file    ../../../Psps_for_tests/Ti.psp8
- Ti    ONCVPSP-3.2.3.1  r_core=   1.35825   1.31050   1.66360
- 22.00000  12.00000    170504                znucl, zion, pspdat
    8   11    2    4       600   0.00000      pspcod,pspxc,lmax,lloc,mmax,r2well
    5.99000000000000    2.50000000000000    0.00000000000000   rchrg,fchrg,qchrg
     nproj     2     2     2
     extension_switch     1
 valence charge integrates to:    11.889184549573358     
  pspatm : epsatm=   14.68144390
         --- l  ekb(1:nproj) -->
             0   11.362348    1.263639
             1    1.975402   -0.084666
             2   -5.186090   -1.477451
 pspatm: atomic psp has been read  and splines computed

- pspini: atom type   2  psp file is ../../../Psps_for_tests/O.psp8
- pspatm: opening atomic psp file    ../../../Psps_for_tests/O.psp8
- O     ONCVPSP-3.2.3.1  r_core=   1.35509   1.45563   1.26150
-  8.00000   6.00000    170504                znucl, zion, pspdat
    8   11    2    4       600   0.00000      pspcod,pspxc,lmax,lloc,mmax,r2well
    5.99000000000000    4.00000000000000    0.00000000000000   rchrg,fchrg,qchrg
     nproj     2     2     1
     extension_switch     1
 valence charge integrates to:    5.9990318752405338     
  pspatm : epsatm=    6.19546011
         --- l  ekb(1:nproj) -->
             0    6.056735    0.824024
             1   -4.717130   -1.149271
             2   -1.331955
 pspatm: atomic psp has been read  and splines computed

- pspini: atom type   3  psp file is ../../../Psps_for_tests/Pd.psp8
- pspatm: opening atomic psp file    ../../../Psps_for_tests/Pd.psp8
- Pd    ONCVPSP-3.2.3.1  r_core=   1.41052   1.46191   1.55175
- 46.00000  18.00000    170510                znucl, zion, pspdat
    8   11    2    4       600   0.00000      pspcod,pspxc,lmax,lloc,mmax,r2well
    5.99000000000000    7.00000000000000    0.00000000000000   rchrg,fchrg,qchrg
     nproj     2     2     2
     extension_switch     1
 valence charge integrates to:    17.981740865694604     
  pspatm : epsatm=   26.09224486
         --- l  ekb(1:nproj) -->
             0    7.845850   -2.282160
             1    3.261104   -0.686948
             2   -1.134855   -0.401224
 pspatm: atomic psp has been read  and splines computed

   1.90216449E+04                                ecore*ucvol(ha*bohr**3)
 ==== Info on pseudopotentials ====
  Norm-conserving pseudopotentials
  Number of pseudopotentials ..    3
  Number of types of atoms   ..    3
  Scalar calculation (no spin-orbit term)
  Nonlocal part applied using Legendre polynomials
  Max number of non-local projectors over l and type   2
  Highest angular momentum +1 .......   3
  Max number of (l,n)   components ..   6
  Max number of (l,m,n) components ..   6

 Pseudo-Core Charge Info: 
   Number of radial points for pseudo-core charge .. 2501
   XC core-correction treatment (optnlxccc) ........    1
   Radius for pseudo-core charge for each type ..... 

  - Atom type    1 has pseudo-core radius ..  5.9900
  - Atom type    2 has pseudo-core radius ..  5.9900
  - Atom type    3 has pseudo-core radius ..  5.9900

 Info on the Q-grid used for form factors in spline form: 
   Number of q-points for radial functions ffspl ..   8718
   Number of q-points for vlspl ...................   8718
   vloc is computed in Reciprocal Space
   model core charge treated in real-space

  XC functional for type 1 is 11
  Pseudo valence available: yes
  XC functional for type 2 is 11
  Pseudo valence available: yes
  XC functional for type 3 is 11
  Pseudo valence available: yes

 wfconv:    62 bands initialized randomly with npw= 41824, for ikpt=     1
 wfconv:    62 bands initialized randomly with npw= 41884, for ikpt=     2
_setup2: Arith. and geom. avg. npw (full set) are   41854.000   41853.989
 initro: for itypat=  1, take pseudo charge density from pp file
 initro: for itypat=  2, take pseudo charge density from pp file
 initro: for itypat=  3, take pseudo charge density from pp file

================================================================================

 getcut: wavevector=  0.0000  0.0000  0.0000  ngfft=  64  64 180
         ecut(hartree)=     60.000   => boxcut(ratio)=   2.06487

 ITER STEP NUMBER     1
 vtorho : nnsclo_now=2, note that nnsclo,dbl_nnsclo,istep=0 0 1
 non-scf iterations; kpt #     1  , k= (  0.12500  0.50000  0.50000  ), band residuals:
 res:  2.02E+00  5.87E+00  7.97E+00  3.30E+00  2.80E+00  3.19E+00  2.14E+00  1.79E+00
 res:  2.58E+00  2.01E+00  2.08E+00  1.95E+00  2.03E+00  1.55E+00  1.78E+00  1.84E+00
 res:  1.94E+00  1.83E+00  1.62E+00  1.80E+00  1.94E+00  1.48E+00  1.79E+00  1.46E+00
 res:  1.59E+00  1.51E+00  1.37E+00  6.13E-01  7.93E-01  1.14E+00  8.26E-01  6.81E-01
 res:  6.32E-01  5.58E-01  5.80E-01  6.60E-01  7.43E-01  6.72E-01  5.51E-01  6.32E-01
 res:  6.04E-01  6.07E-01  5.33E-01  5.58E-01  5.43E-01  5.47E-01  5.06E-01  6.03E-01
 res:  5.17E-01  4.92E-01  5.53E-01  5.16E-01  5.80E-01  5.26E-01  4.77E-01  5.43E-01
 res:  5.40E-01  5.81E-01  4.78E-01  4.88E-01  5.07E-01  4.75E-01
 ene: -2.41E+00 -2.37E+00 -2.31E+00 -2.26E+00 -1.68E+00 -1.59E+00 -1.39E+00 -1.34E+00
 ene: -1.32E+00 -1.29E+00 -1.25E+00 -1.24E+00 -1.20E+00 -1.19E+00 -1.17E+00 -1.12E+00
 ene: -1.07E+00 -1.06E+00 -8.86E-01 -8.43E-01 -8.15E-01 -7.62E-01 -7.45E-01 -6.78E-01
 ene: -5.08E-01 -4.95E-01 -4.40E-01 -3.54E-01 -3.04E-02 -7.30E-03  1.58E-02  2.15E-02
 ene:  4.88E-02  6.89E-02  8.35E-02  1.06E-01  1.13E-01  1.31E-01  1.39E-01  1.61E-01
 ene:  1.89E-01  2.09E-01  2.31E-01  2.48E-01  2.58E-01  2.69E-01  2.96E-01  3.00E-01
 ene:  3.19E-01  3.35E-01  3.48E-01  3.64E-01  3.78E-01  4.01E-01  4.10E-01  4.22E-01
 ene:  4.32E-01  4.70E-01  4.96E-01  5.58E-01  6.10E-01  6.30E-01
 res:  1.22E-01  1.36E-01  1.42E-01  1.55E-01  3.97E-02  7.49E-02  1.99E-02  2.54E-02
 res:  2.36E-02  2.53E-02  2.56E-02  3.61E-02  4.20E-02  3.65E-02  5.48E-02  5.12E-02
 res:  6.10E-02  7.16E-02  3.15E-02  3.82E-02  5.60E-02  5.61E-02  6.45E-02  7.91E-02
 res:  3.15E-02  4.24E-02  3.62E-02  5.55E-02  2.72E-02  2.88E-02  3.64E-02  4.14E-02
 res:  3.67E-02  4.05E-02  4.30E-02  4.42E-02  4.58E-02  4.86E-02  3.45E-02  5.32E-02
 res:  4.44E-02  5.83E-02  3.44E-02  4.12E-02  6.67E-02  4.18E-02  5.68E-02  5.22E-02
 res:  6.08E-02  6.94E-02  5.73E-02  7.02E-02  6.25E-02  6.26E-02  6.69E-02  7.20E-02
 res:  6.95E-02  8.23E-02  9.29E-02  8.14E-02  9.26E-02  9.96E-02
 ene: -2.92E+00 -2.89E+00 -2.88E+00 -2.88E+00 -2.05E+00 -2.05E+00 -1.74E+00 -1.67E+00
 ene: -1.66E+00 -1.66E+00 -1.64E+00 -1.63E+00 -1.63E+00 -1.63E+00 -1.63E+00 -1.63E+00
 ene: -1.62E+00 -1.60E+00 -1.19E+00 -1.19E+00 -1.19E+00 -1.18E+00 -1.18E+00 -1.17E+00
 ene: -7.48E-01 -7.37E-01 -6.93E-01 -6.74E-01 -2.34E-01 -2.29E-01 -2.15E-01 -2.00E-01
 ene: -1.92E-01 -1.65E-01 -1.54E-01 -1.41E-01 -1.34E-01 -1.19E-01 -1.08E-01 -8.87E-02
 ene: -1.91E-02 -1.92E-03  1.48E-02  2.51E-02  4.02E-02  5.16E-02  5.82E-02  7.07E-02
 ene:  7.96E-02  8.61E-02  1.02E-01  1.15E-01  1.25E-01  1.34E-01  1.44E-01  1.63E-01
 ene:  1.75E-01  1.88E-01  1.91E-01  2.12E-01  2.26E-01  2.51E-01
 vtowfk : number of one-way 3D ffts skipped in vtowfk until now =2
     eigenvalues (hartree) for   62  bands
              after    3 non-SCF iterations with    4 CG line minimizations
 -2.9236E+00 -2.8927E+00 -2.8846E+00 -2.8781E+00 -2.0533E+00 -2.0479E+00
 -1.7397E+00 -1.6680E+00 -1.6611E+00 -1.6570E+00 -1.6422E+00 -1.6340E+00
 -1.6329E+00 -1.6310E+00 -1.6283E+00 -1.6280E+00 -1.6237E+00 -1.6036E+00
 -1.1933E+00 -1.1908E+00 -1.1888E+00 -1.1824E+00 -1.1799E+00 -1.1738E+00
 -7.4759E-01 -7.3725E-01 -6.9319E-01 -6.7361E-01 -2.3415E-01 -2.2888E-01
 -2.1528E-01 -1.9962E-01 -1.9250E-01 -1.6468E-01 -1.5435E-01 -1.4136E-01
 -1.3448E-01 -1.1926E-01 -1.0822E-01 -8.8724E-02 -1.9104E-02 -1.9166E-03
  1.4848E-02  2.5137E-02  4.0219E-02  5.1604E-02  5.8241E-02  7.0672E-02
  7.9633E-02  8.6141E-02  1.0165E-01  1.1493E-01  1.2542E-01  1.3441E-01
  1.4447E-01  1.6254E-01  1.7504E-01  1.8805E-01  1.9130E-01  2.1202E-01
  2.2579E-01  2.5097E-01
 non-scf iterations; kpt #     2  , k= (  0.37500  0.50000  0.50000  ), band residuals:
 res:  3.35E+00  5.98E+00  3.61E+00  7.75E+00  3.81E+00  1.94E+00  2.13E+00  1.86E+00
 res:  2.14E+00  1.99E+00  1.73E+00  1.87E+00  1.72E+00  1.93E+00  1.57E+00  1.62E+00
 res:  1.76E+00  1.58E+00  1.93E+00  1.70E+00  1.45E+00  1.67E+00  1.53E+00  1.27E+00
 res:  1.44E+00  1.15E+00  1.45E+00  8.19E-01  8.64E-01  8.15E-01  8.67E-01  5.80E-01
 res:  6.23E-01  7.12E-01  5.63E-01  5.51E-01  5.48E-01  5.77E-01  4.90E-01  5.67E-01
 res:  4.88E-01  4.77E-01  6.50E-01  4.91E-01  5.69E-01  5.60E-01  5.38E-01  6.79E-01
 res:  4.60E-01  5.57E-01  6.60E-01  4.43E-01  5.45E-01  5.20E-01  4.62E-01  5.42E-01
 res:  5.19E-01  5.12E-01  5.39E-01  4.22E-01  4.78E-01  4.24E-01
 ene: -2.48E+00 -2.43E+00 -2.31E+00 -2.25E+00 -1.70E+00 -1.65E+00 -1.40E+00 -1.38E+00
 ene: -1.37E+00 -1.34E+00 -1.32E+00 -1.32E+00 -1.28E+00 -1.27E+00 -1.24E+00 -1.21E+00
 ene: -1.17E+00 -1.13E+00 -9.29E-01 -8.97E-01 -8.67E-01 -8.37E-01 -8.01E-01 -7.75E-01
 ene: -5.57E-01 -5.06E-01 -4.75E-01 -4.38E-01 -2.96E-02 -7.88E-03  1.14E-02  3.19E-02
 ene:  4.12E-02  5.74E-02  7.93E-02  9.89E-02  1.11E-01  1.18E-01  1.41E-01  1.60E-01
 ene:  1.84E-01  1.93E-01  2.06E-01  2.25E-01  2.44E-01  2.60E-01  2.69E-01  2.81E-01
 ene:  2.96E-01  3.08E-01  3.31E-01  3.42E-01  3.53E-01  3.65E-01  3.97E-01  4.02E-01
 ene:  4.33E-01  4.46E-01  4.83E-01  5.26E-01  5.37E-01  5.97E-01
 res:  1.14E-01  1.23E-01  1.39E-01  1.57E-01  4.53E-02  5.87E-02  1.31E-02  2.01E-02
 res:  1.64E-02  2.38E-02  1.98E-02  2.87E-02  2.76E-02  2.42E-02  2.31E-02  4.23E-02
 res:  4.18E-02  4.69E-02  2.37E-02  2.47E-02  2.76E-02  2.98E-02  3.87E-02  4.60E-02
 res:  2.23E-02  2.06E-02  2.17E-02  3.52E-02  2.44E-02  3.34E-02  2.35E-02  4.08E-02
 res:  4.05E-02  3.55E-02  4.04E-02  3.90E-02  4.99E-02  4.25E-02  4.60E-02  6.15E-02
 res:  4.58E-02  4.24E-02  4.51E-02  3.90E-02  4.11E-02  4.07E-02  5.74E-02  4.24E-02
 res:  5.96E-02  5.74E-02  5.20E-02  6.01E-02  5.33E-02  5.09E-02  6.46E-02  6.78E-02
 res:  6.23E-02  5.98E-02  7.88E-02  9.37E-02  9.17E-02  8.03E-02
 ene: -2.92E+00 -2.89E+00 -2.89E+00 -2.88E+00 -2.06E+00 -2.05E+00 -1.74E+00 -1.67E+00
 ene: -1.66E+00 -1.66E+00 -1.64E+00 -1.63E+00 -1.63E+00 -1.63E+00 -1.63E+00 -1.63E+00
 ene: -1.63E+00 -1.61E+00 -1.19E+00 -1.19E+00 -1.19E+00 -1.19E+00 -1.18E+00 -1.18E+00
 ene: -7.46E-01 -7.40E-01 -6.92E-01 -6.78E-01 -2.36E-01 -2.24E-01 -2.15E-01 -2.06E-01
 ene: -1.84E-01 -1.68E-01 -1.62E-01 -1.43E-01 -1.36E-01 -1.26E-01 -1.05E-01 -9.36E-02
 ene: -2.98E-02 -1.74E-03  1.91E-02  3.26E-02  5.14E-02  5.82E-02  6.57E-02  8.33E-02
 ene:  9.16E-02  1.02E-01  1.09E-01  1.20E-01  1.32E-01  1.42E-01  1.46E-01  1.49E-01
 ene:  1.61E-01  1.84E-01  1.94E-01  2.07E-01  2.19E-01  2.37E-01
 vtowfk : number of one-way 3D ffts skipped in vtowfk until now =4
     eigenvalues (hartree) for   62  bands
              after    3 non-SCF iterations with    4 CG line minimizations
 -2.9228E+00 -2.8941E+00 -2.8858E+00 -2.8791E+00 -2.0567E+00 -2.0513E+00
 -1.7423E+00 -1.6705E+00 -1.6621E+00 -1.6599E+00 -1.6433E+00 -1.6348E+00
 -1.6338E+00 -1.6320E+00 -1.6291E+00 -1.6279E+00 -1.6271E+00 -1.6056E+00
 -1.1942E+00 -1.1922E+00 -1.1874E+00 -1.1867E+00 -1.1825E+00 -1.1763E+00
 -7.4572E-01 -7.3956E-01 -6.9182E-01 -6.7830E-01 -2.3594E-01 -2.2403E-01
 -2.1476E-01 -2.0640E-01 -1.8360E-01 -1.6784E-01 -1.6209E-01 -1.4290E-01
 -1.3568E-01 -1.2623E-01 -1.0458E-01 -9.3624E-02 -2.9797E-02 -1.7403E-03
  1.9057E-02  3.2576E-02  5.1430E-02  5.8155E-02  6.5693E-02  8.3288E-02
  9.1584E-02  1.0153E-01  1.0945E-01  1.2013E-01  1.3170E-01  1.4190E-01
  1.4583E-01  1.4933E-01  1.6057E-01  1.8370E-01  1.9448E-01  2.0722E-01
  2.1863E-01  2.3668E-01
 Total charge density [el/Bohr^3]
      Maximum=    1.6314E+00  at reduced coord.    0.3906    0.2344    0.6611
      Minimum=    1.7257E-03  at reduced coord.    0.8594    0.7344    0.3889
   Integrated=    1.2000E+02
 ETOT  1  -679.56637215913    -6.796E+02 1.566E-01 5.518E+06
 scprqt: <Vxc>= -3.3153089E-01 hartree

Simple mixing update:
  residual square of the potential :   143358.16900290729
 scfcv: previous iteration took 01:03

 ITER STEP NUMBER     2
 vtorho : nnsclo_now=2, note that nnsclo,dbl_nnsclo,istep=0 0 2
 non-scf iterations; kpt #     1  , k= (  0.12500  0.50000  0.50000  ), band residuals:
 res:  2.21E-02  2.11E-02  1.78E-02  2.43E-02  2.30E-03  2.98E-03  3.34E-03  1.68E-02
 res:  8.12E-03  1.07E-02  1.12E-02  9.98E-03  9.33E-03  1.04E-02  1.09E-02  7.87E-03
 res:  1.01E-02  1.26E-02  1.14E-03  2.21E-03  2.01E-03  2.76E-03  2.60E-03  1.81E-03
 res:  9.30E-01  5.53E-01  7.80E-01  6.75E-01  7.40E-01  6.50E-01  5.18E-01  5.63E-01
 res:  3.54E-01  7.43E-01  6.17E-01  6.69E-01  4.76E-01  6.11E-01  5.35E-01  6.82E-01
 res:  9.86E-02  8.43E-02  1.61E-01  2.20E-01  9.96E-02  1.27E-01  1.70E-01  1.39E-01
 res:  1.36E-01  2.57E-01  5.13E-01  4.62E-01  3.30E-01  4.87E-01  4.93E-01  3.85E-01
 res:  4.22E-01  4.12E-01  3.40E-01  3.39E-01  3.27E-01  2.31E-01
 ene: -4.44E+00 -4.41E+00 -4.39E+00 -4.32E+00 -3.20E+00 -3.11E+00 -3.10E+00 -3.09E+00
 ene: -3.09E+00 -3.08E+00 -3.07E+00 -3.07E+00 -3.05E+00 -3.01E+00 -3.00E+00 -2.99E+00
 ene: -1.62E+00 -1.55E+00 -1.28E+00 -1.25E+00 -1.24E+00 -1.14E+00 -1.14E+00 -1.12E+00
 ene: -1.11E+00 -1.09E+00 -1.08E+00 -1.06E+00 -1.04E+00 -1.03E+00 -1.00E+00 -9.75E-01
 ene: -9.23E-01 -8.75E-01 -7.88E-01 -7.67E-01 -7.49E-01 -7.47E-01 -7.34E-01 -7.00E-01
 ene: -6.95E-01 -6.82E-01 -6.78E-01 -6.32E-01 -5.16E-01 -4.37E-01 -2.51E-01 -1.82E-01
 ene: -1.18E-01 -7.85E-02 -1.46E-02  2.21E-02  4.17E-02  8.64E-02  1.84E-01  2.27E-01
 ene:  2.66E-01  3.46E-01  3.68E-01  3.99E-01  4.11E-01  4.47E-01
 res:  2.80E-04  1.78E-04  2.65E-04  1.80E-04  1.78E-05  6.65E-05  4.24E-05  9.43E-05
 res:  3.97E-05  3.94E-05  7.24E-05  1.15E-04  7.66E-05  4.36E-05  7.32E-05  6.24E-05
 res:  1.74E-05  2.17E-05  4.15E-03  3.53E-03  3.95E-03  1.49E-03  1.73E-03  2.20E-03
 res:  2.36E-03  3.37E-03  2.25E-03  5.15E-03  5.54E-03  5.41E-03  7.06E-03  7.31E-03
 res:  1.22E-02  2.77E-02  4.26E-02  1.95E-03  2.44E-02  9.84E-04  5.97E-02  1.19E-02
 res:  6.33E-02  1.36E-02  9.46E-03  5.11E-02  1.17E-01  1.19E-01  4.82E-02  3.48E-02
 res:  3.94E-02  3.78E-02  4.34E-02  1.92E-02  3.26E-02  2.33E-02  3.75E-02  2.88E-02
 res:  4.39E-02  6.81E-02  8.54E-02  1.09E-01  1.91E-01  1.41E-01
 ene: -4.44E+00 -4.41E+00 -4.39E+00 -4.32E+00 -3.20E+00 -3.11E+00 -3.10E+00 -3.09E+00
 ene: -3.09E+00 -3.08E+00 -3.08E+00 -3.07E+00 -3.05E+00 -3.01E+00 -3.00E+00 -2.99E+00
 ene: -1.62E+00 -1.55E+00 -1.33E+00 -1.28E+00 -1.26E+00 -1.17E+00 -1.16E+00 -1.16E+00
 ene: -1.14E+00 -1.14E+00 -1.12E+00 -1.11E+00 -1.11E+00 -1.10E+00 -1.09E+00 -1.09E+00
 ene: -1.08E+00 -1.06E+00 -1.05E+00 -1.04E+00 -1.04E+00 -1.01E+00 -7.67E-01 -7.48E-01
 ene: -7.47E-01 -7.00E-01 -6.85E-01 -6.80E-01 -6.72E-01 -6.06E-01 -4.07E-01 -3.22E-01
 ene: -3.09E-01 -2.83E-01 -2.09E-01 -1.47E-01 -1.07E-01 -8.86E-02 -7.10E-02 -5.23E-02
 ene: -3.24E-02 -6.77E-03  2.16E-02  3.60E-02  8.43E-02  1.07E-01
 vtowfk : number of one-way 3D ffts skipped in vtowfk until now =6
     eigenvalues (hartree) for   62  bands
              after    3 non-SCF iterations with    4 CG line minimizations
 -4.4401E+00 -4.4102E+00 -4.3898E+00 -4.3178E+00 -3.2012E+00 -3.1121E+00
 -3.0988E+00 -3.0929E+00 -3.0891E+00 -3.0767E+00 -3.0759E+00 -3.0714E+00
 -3.0464E+00 -3.0098E+00 -3.0046E+00 -2.9874E+00 -1.6171E+00 -1.5496E+00
 -1.3316E+00 -1.2800E+00 -1.2584E+00 -1.1657E+00 -1.1633E+00 -1.1562E+00
 -1.1438E+00 -1.1361E+00 -1.1175E+00 -1.1113E+00 -1.1053E+00 -1.1003E+00
 -1.0916E+00 -1.0863E+00 -1.0831E+00 -1.0647E+00 -1.0481E+00 -1.0416E+00
 -1.0353E+00 -1.0132E+00 -7.6730E-01 -7.4780E-01 -7.4661E-01 -6.9985E-01
 -6.8469E-01 -6.7990E-01 -6.7178E-01 -6.0560E-01 -4.0685E-01 -3.2208E-01
 -3.0944E-01 -2.8339E-01 -2.0899E-01 -1.4732E-01 -1.0731E-01 -8.8569E-02
 -7.1014E-02 -5.2312E-02 -3.2435E-02 -6.7718E-03  2.1572E-02  3.6041E-02
  8.4268E-02  1.0651E-01
 non-scf iterations; kpt #     2  , k= (  0.37500  0.50000  0.50000  ), band residuals:
 res:  2.26E-02  2.35E-02  1.88E-02  2.45E-02  7.03E-04  1.62E-03  2.80E-03  1.33E-02
 res:  1.10E-02  1.34E-02  1.28E-02  1.02E-02  8.68E-03  1.08E-02  1.26E-02  8.82E-03
 res:  9.34E-03  1.20E-02  1.11E-03  1.27E-03  3.06E-03  2.58E-03  2.19E-03  1.31E-03
 res:  7.45E-01  2.30E-01  9.96E-01  7.48E-01  6.27E-01  6.29E-01  6.57E-01  6.00E-01
 res:  7.23E-01  6.37E-01  5.38E-01  6.79E-01  6.43E-01  5.34E-01  4.45E-01  5.25E-01
 res:  5.53E-02  6.87E-02  1.41E-01  1.73E-01  1.03E-01  9.64E-02  1.87E-01  1.53E-01
 res:  1.96E-01  2.41E-01  4.07E-01  5.28E-01  5.42E-01  2.77E-01  3.10E-01  4.58E-01
 res:  3.56E-01  4.82E-01  5.03E-01  3.29E-01  4.07E-01  2.21E-01
 ene: -4.44E+00 -4.41E+00 -4.39E+00 -4.32E+00 -3.20E+00 -3.11E+00 -3.10E+00 -3.09E+00
 ene: -3.09E+00 -3.08E+00 -3.08E+00 -3.07E+00 -3.04E+00 -3.01E+00 -3.00E+00 -2.99E+00
 ene: -1.62E+00 -1.55E+00 -1.28E+00 -1.26E+00 -1.24E+00 -1.15E+00 -1.14E+00 -1.12E+00
 ene: -1.10E+00 -1.09E+00 -1.07E+00 -1.05E+00 -1.04E+00 -1.02E+00 -1.00E+00 -9.75E-01
 ene: -9.46E-01 -8.73E-01 -8.46E-01 -7.76E-01 -7.65E-01 -7.48E-01 -7.47E-01 -7.01E-01
 ene: -6.85E-01 -6.81E-01 -6.77E-01 -5.82E-01 -5.32E-01 -4.12E-01 -3.07E-01 -1.79E-01
 ene: -1.28E-01 -1.24E-02  2.63E-02  6.57E-02  8.94E-02  1.53E-01  2.36E-01  2.94E-01
 ene:  3.30E-01  3.81E-01  3.89E-01  4.04E-01  4.26E-01  4.66E-01
 res:  2.84E-04  1.90E-04  2.46E-04  2.30E-04  1.46E-05  5.16E-05  5.55E-05  6.20E-05
 res:  5.76E-05  5.52E-05  6.62E-05  5.07E-05  9.25E-05  9.23E-05  6.77E-05  7.31E-05
 res:  1.91E-05  1.21E-05  4.12E-03  3.08E-03  3.56E-03  1.28E-03  1.76E-03  2.53E-03
 res:  2.47E-03  4.60E-03  2.50E-03  3.16E-03  4.02E-03  5.55E-03  6.07E-03  9.19E-03
 res:  1.14E-02  2.61E-02  3.36E-02  5.77E-02  1.11E-02  1.24E-03  7.28E-04  1.90E-03
 res:  3.90E-02  5.42E-02  5.82E-02  1.17E-01  8.92E-02  9.15E-02  8.08E-02  3.71E-02
 res:  3.51E-02  3.59E-02  5.79E-02  3.26E-02  4.95E-02  3.47E-02  3.27E-02  4.26E-02
 res:  5.65E-02  9.42E-02  1.41E-01  1.05E-01  1.20E-01  1.14E-01
 ene: -4.44E+00 -4.41E+00 -4.39E+00 -4.32E+00 -3.20E+00 -3.11E+00 -3.10E+00 -3.09E+00
 ene: -3.09E+00 -3.08E+00 -3.08E+00 -3.07E+00 -3.05E+00 -3.01E+00 -3.00E+00 -2.99E+00
 ene: -1.62E+00 -1.55E+00 -1.33E+00 -1.28E+00 -1.26E+00 -1.17E+00 -1.16E+00 -1.15E+00
 ene: -1.14E+00 -1.13E+00 -1.12E+00 -1.11E+00 -1.11E+00 -1.10E+00 -1.09E+00 -1.08E+00
 ene: -1.08E+00 -1.06E+00 -1.05E+00 -1.04E+00 -1.03E+00 -1.02E+00 -7.67E-01 -7.48E-01
 ene: -7.47E-01 -7.01E-01 -6.84E-01 -6.78E-01 -6.57E-01 -5.99E-01 -4.38E-01 -3.48E-01
 ene: -3.37E-01 -2.68E-01 -2.02E-01 -1.23E-01 -7.75E-02 -6.23E-02 -4.73E-02 -2.74E-02
 ene: -2.12E-02 -1.05E-02  5.70E-03  3.82E-02  1.15E-01  1.60E-01
 vtowfk : number of one-way 3D ffts skipped in vtowfk until now =8
     eigenvalues (hartree) for   62  bands
              after    3 non-SCF iterations with    4 CG line minimizations
 -4.4401E+00 -4.4102E+00 -4.3898E+00 -4.3178E+00 -3.2012E+00 -3.1121E+00
 -3.0988E+00 -3.0929E+00 -3.0891E+00 -3.0767E+00 -3.0759E+00 -3.0714E+00
 -3.0464E+00 -3.0098E+00 -3.0046E+00 -2.9874E+00 -1.6171E+00 -1.5496E+00
 -1.3326E+00 -1.2804E+00 -1.2583E+00 -1.1658E+00 -1.1649E+00 -1.1545E+00
 -1.1438E+00 -1.1329E+00 -1.1160E+00 -1.1073E+00 -1.1064E+00 -1.0959E+00
 -1.0917E+00 -1.0842E+00 -1.0794E+00 -1.0632E+00 -1.0467E+00 -1.0408E+00
 -1.0322E+00 -1.0239E+00 -7.6723E-01 -7.4815E-01 -7.4740E-01 -7.0070E-01
 -6.8397E-01 -6.7768E-01 -6.5716E-01 -5.9943E-01 -4.3802E-01 -3.4805E-01
 -3.3676E-01 -2.6804E-01 -2.0220E-01 -1.2275E-01 -7.7494E-02 -6.2315E-02
 -4.7274E-02 -2.7353E-02 -2.1194E-02 -1.0531E-02  5.6958E-03  3.8244E-02
  1.1539E-01  1.5955E-01
 Total charge density [el/Bohr^3]
      Maximum=    2.5760E+00  at reduced coord.    0.9844    0.0625    0.7389
      Minimum=    1.1814E-04  at reduced coord.    0.5000    0.5469    0.9333
   Integrated=    1.2000E+02
 ETOT  2  -522.56747156116     1.570E+02 1.909E-01 2.898E+07
 scprqt: <Vxc>= -2.7411168E-01 hartree

 Pulay update with  1 previous iterations:
 mixing of old trial potential : alpha(m:m-4)=  0.307      0.693
 scfcv: previous iteration took 01:03

 ITER STEP NUMBER     3
 vtorho : nnsclo_now=1, note that nnsclo,dbl_nnsclo,istep=0 0 3
 non-scf iterations; kpt #     1  , k= (  0.12500  0.50000  0.50000  ), band residuals:
 res:  1.15E-02  6.59E-03  1.25E-02  1.05E-02  7.92E-03  9.01E-03  8.14E-03  8.64E-03
 res:  5.89E-03  8.41E-03  6.21E-03  8.36E-03  9.57E-03  8.89E-03  6.79E-03  8.73E-03
 res:  2.33E-03  6.82E-04  9.22E-04  2.13E-03  1.82E-03  5.55E-03  4.92E-03  6.37E-03
 res:  6.71E-03  4.63E-03  5.51E-03  3.44E-03  4.81E-03  3.01E-03  3.27E-03  3.39E-03
 res:  4.21E-03  5.81E-03  3.74E-03  2.88E-03  3.42E-03  6.13E-03  3.08E-03  6.21E-04
 res:  6.09E-04  5.70E-04  7.36E-04  3.74E-04  1.73E-02  1.91E-02  2.24E-02  2.42E-02
 res:  1.87E-02  5.42E-02  1.06E-01  2.58E-02  2.00E-01  1.10E-01  2.37E-02  1.89E-02
 res:  3.62E-02  5.06E-02  1.71E-01  8.61E-02  1.32E-01  8.28E-02
 ene: -3.47E+00 -3.44E+00 -3.44E+00 -3.41E+00 -2.27E+00 -2.18E+00 -2.17E+00 -2.17E+00
 ene: -2.17E+00 -2.16E+00 -2.16E+00 -2.15E+00 -2.14E+00 -2.14E+00 -2.13E+00 -2.13E+00
 ene: -1.98E+00 -1.94E+00 -1.12E+00 -1.11E+00 -1.10E+00 -1.08E+00 -1.07E+00 -1.06E+00
 ene: -6.39E-01 -6.26E-01 -5.77E-01 -5.57E-01 -4.95E-01 -4.83E-01 -4.57E-01 -3.87E-01
 ene: -3.79E-01 -3.71E-01 -3.64E-01 -3.55E-01 -3.33E-01 -3.31E-01 -3.25E-01 -3.20E-01
 ene: -3.17E-01 -2.96E-01 -2.94E-01 -2.92E-01 -2.89E-01 -2.67E-01 -2.62E-01 -2.40E-01
 ene: -1.44E-01 -8.34E-02 -3.45E-02 -7.61E-03  1.87E-02  3.65E-02  5.12E-02  9.88E-02
 ene:  1.44E-01  1.68E-01  1.75E-01  2.08E-01  2.45E-01  2.55E-01
 vtowfk : number of one-way 3D ffts skipped in vtowfk until now =10
     eigenvalues (hartree) for   62  bands
              after    2 non-SCF iterations with    4 CG line minimizations
 -3.4668E+00 -3.4412E+00 -3.4363E+00 -3.4093E+00 -2.2672E+00 -2.1809E+00
 -2.1730E+00 -2.1698E+00 -2.1683E+00 -2.1647E+00 -2.1568E+00 -2.1522E+00
 -2.1445E+00 -2.1367E+00 -2.1307E+00 -2.1250E+00 -1.9792E+00 -1.9398E+00
 -1.1200E+00 -1.1072E+00 -1.1003E+00 -1.0782E+00 -1.0666E+00 -1.0562E+00
 -6.3866E-01 -6.2600E-01 -5.7722E-01 -5.5703E-01 -4.9531E-01 -4.8334E-01
 -4.5716E-01 -3.8654E-01 -3.7911E-01 -3.7091E-01 -3.6387E-01 -3.5526E-01
 -3.3340E-01 -3.3140E-01 -3.2494E-01 -3.2021E-01 -3.1697E-01 -2.9625E-01
 -2.9412E-01 -2.9210E-01 -2.8910E-01 -2.6687E-01 -2.6234E-01 -2.4042E-01
 -1.4407E-01 -8.3385E-02 -3.4489E-02 -7.6137E-03  1.8744E-02  3.6517E-02
  5.1158E-02  9.8796E-02  1.4356E-01  1.6769E-01  1.7534E-01  2.0846E-01
  2.4450E-01  2.5525E-01
 non-scf iterations; kpt #     2  , k= (  0.37500  0.50000  0.50000  ), band residuals:
 res:  1.10E-02  6.38E-03  1.21E-02  1.04E-02  9.10E-03  9.15E-03  7.81E-03  8.13E-03
 res:  5.49E-03  8.91E-03  5.91E-03  6.93E-03  1.13E-02  9.42E-03  7.24E-03  8.52E-03
 res:  2.34E-03  6.82E-04  7.14E-04  2.40E-03  1.88E-03  6.01E-03  3.94E-03  4.84E-03
 res:  7.15E-03  4.47E-03  4.22E-03  3.63E-03  4.26E-03  3.96E-03  3.54E-03  3.30E-03
 res:  4.50E-03  6.65E-03  3.35E-03  3.74E-03  5.41E-03  3.26E-03  3.25E-03  6.27E-04
 res:  5.25E-04  3.31E-04  6.64E-04  2.27E-03  1.79E-02  1.78E-02  2.00E-02  2.41E-02
 res:  2.51E-02  2.21E-02  3.10E-02  4.16E-02  1.43E-01  5.74E-02  1.92E-01  2.53E-01
 res:  1.67E-01  1.90E-01  1.65E-01  1.04E-01  1.24E-01  1.23E-01
 ene: -3.47E+00 -3.44E+00 -3.44E+00 -3.41E+00 -2.27E+00 -2.18E+00 -2.17E+00 -2.17E+00
 ene: -2.17E+00 -2.16E+00 -2.16E+00 -2.15E+00 -2.14E+00 -2.14E+00 -2.13E+00 -2.13E+00
 ene: -1.98E+00 -1.94E+00 -1.12E+00 -1.11E+00 -1.10E+00 -1.08E+00 -1.07E+00 -1.06E+00
 ene: -6.37E-01 -6.07E-01 -5.63E-01 -4.95E-01 -4.84E-01 -4.64E-01 -4.56E-01 -3.86E-01
 ene: -3.78E-01 -3.69E-01 -3.63E-01 -3.56E-01 -3.35E-01 -3.31E-01 -3.24E-01 -3.21E-01
 ene: -3.16E-01 -2.97E-01 -2.95E-01 -2.92E-01 -2.91E-01 -2.69E-01 -2.63E-01 -2.41E-01
 ene: -1.14E-01 -6.89E-02 -6.07E-02 -2.94E-02  1.47E-03  2.02E-02  3.48E-02  7.33E-02
 ene:  1.07E-01  1.17E-01  1.61E-01  1.89E-01  2.37E-01  3.71E-01
 vtowfk : number of one-way 3D ffts skipped in vtowfk until now =12
     eigenvalues (hartree) for   62  bands
              after    2 non-SCF iterations with    4 CG line minimizations
 -3.4669E+00 -3.4410E+00 -3.4364E+00 -3.4093E+00 -2.2679E+00 -2.1814E+00
 -2.1737E+00 -2.1693E+00 -2.1677E+00 -2.1650E+00 -2.1571E+00 -2.1517E+00
 -2.1445E+00 -2.1368E+00 -2.1305E+00 -2.1250E+00 -1.9792E+00 -1.9398E+00
 -1.1201E+00 -1.1072E+00 -1.1003E+00 -1.0781E+00 -1.0666E+00 -1.0562E+00
 -6.3734E-01 -6.0706E-01 -5.6340E-01 -4.9537E-01 -4.8418E-01 -4.6395E-01
 -4.5641E-01 -3.8635E-01 -3.7804E-01 -3.6949E-01 -3.6346E-01 -3.5565E-01
 -3.3459E-01 -3.3148E-01 -3.2405E-01 -3.2145E-01 -3.1596E-01 -2.9734E-01
 -2.9463E-01 -2.9245E-01 -2.9080E-01 -2.6851E-01 -2.6250E-01 -2.4056E-01
 -1.1380E-01 -6.8876E-02 -6.0652E-02 -2.9447E-02  1.4669E-03  2.0234E-02
  3.4815E-02  7.3342E-02  1.0700E-01  1.1678E-01  1.6078E-01  1.8869E-01
  2.3690E-01  3.7146E-01
 Total charge density [el/Bohr^3]
      Maximum=    2.1829E+00  at reduced coord.    0.3594    0.7344    0.6389
      Minimum=    6.2587E-04  at reduced coord.    0.7500    0.5000    0.3944
   Integrated=    1.2000E+02
 ETOT  3  -666.39581047342    -1.438E+02 2.530E-01 7.605E+06
 scprqt: <Vxc>= -2.9848721E-01 hartree

 Pulay update with  2 previous iterations:
 mixing of old trial potential : alpha(m:m-4)=  0.727     -0.173      0.446
 scfcv: previous iteration took 31 [s]

 ITER STEP NUMBER     4
 vtorho : nnsclo_now=1, note that nnsclo,dbl_nnsclo,istep=0 0 4
 non-scf iterations; kpt #     1  , k= (  0.12500  0.50000  0.50000  ), band residuals:
 res:  5.44E-04  5.63E-04  4.47E-04  6.28E-04  2.80E-04  5.31E-04  4.88E-04  4.96E-04
 res:  4.07E-04  3.23E-04  4.05E-04  4.75E-04  5.38E-04  5.12E-04  4.19E-04  5.65E-04
 res:  2.76E-04  2.94E-04  1.83E-04  2.17E-04  1.64E-04  2.87E-04  1.19E-04  9.69E-05
 res:  6.25E-04  1.43E-03  1.47E-03  1.95E-03  3.18E-04  5.41E-04  4.92E-04  8.02E-04
 res:  4.42E-04  1.17E-03  1.21E-03  6.40E-04  1.08E-03  8.17E-04  7.15E-04  7.76E-04
 res:  1.37E-03  1.46E-03  1.03E-03  1.13E-03  1.19E-03  1.43E-03  1.71E-03  3.02E-03
 res:  2.81E-03  3.93E-03  1.23E-02  1.30E-02  2.44E-02  2.51E-02  1.43E-01  1.08E-01
 res:  1.62E-01  2.02E-01  1.55E-01  1.30E-01  1.42E-01  1.59E-01
 ene: -3.18E+00 -3.18E+00 -3.15E+00 -3.13E+00 -2.23E+00 -2.18E+00 -1.98E+00 -1.91E+00
 ene: -1.91E+00 -1.90E+00 -1.90E+00 -1.90E+00 -1.89E+00 -1.88E+00 -1.86E+00 -1.86E+00
 ene: -1.86E+00 -1.85E+00 -1.36E+00 -1.35E+00 -1.34E+00 -1.30E+00 -1.30E+00 -1.29E+00
 ene: -8.45E-01 -8.26E-01 -8.01E-01 -7.80E-01 -3.19E-01 -2.97E-01 -2.75E-01 -2.60E-01
 ene: -2.42E-01 -2.38E-01 -2.26E-01 -2.19E-01 -2.15E-01 -1.99E-01 -1.85E-01 -1.62E-01
 ene: -1.58E-01 -1.46E-01 -1.43E-01 -1.37E-01 -1.24E-01 -1.18E-01 -1.14E-01 -1.13E-01
 ene: -1.04E-01 -1.01E-01 -9.23E-02 -5.97E-02 -5.69E-02 -5.56E-02 -5.02E-02 -3.30E-02
 ene: -2.73E-02 -1.10E-02  2.19E-04  1.60E-02  5.17E-02  2.09E-01
 vtowfk : number of one-way 3D ffts skipped in vtowfk until now =14
     eigenvalues (hartree) for   62  bands
              after    2 non-SCF iterations with    4 CG line minimizations
 -3.1762E+00 -3.1758E+00 -3.1452E+00 -3.1295E+00 -2.2257E+00 -2.1766E+00
 -1.9827E+00 -1.9123E+00 -1.9092E+00 -1.9017E+00 -1.9000E+00 -1.8967E+00
 -1.8899E+00 -1.8766E+00 -1.8648E+00 -1.8628E+00 -1.8586E+00 -1.8463E+00
 -1.3556E+00 -1.3495E+00 -1.3431E+00 -1.3046E+00 -1.2978E+00 -1.2893E+00
 -8.4465E-01 -8.2580E-01 -8.0055E-01 -7.7984E-01 -3.1942E-01 -2.9693E-01
 -2.7518E-01 -2.5971E-01 -2.4188E-01 -2.3841E-01 -2.2630E-01 -2.1870E-01
 -2.1450E-01 -1.9868E-01 -1.8477E-01 -1.6202E-01 -1.5838E-01 -1.4628E-01
 -1.4283E-01 -1.3697E-01 -1.2381E-01 -1.1829E-01 -1.1413E-01 -1.1254E-01
 -1.0436E-01 -1.0127E-01 -9.2344E-02 -5.9720E-02 -5.6864E-02 -5.5644E-02
 -5.0198E-02 -3.3001E-02 -2.7318E-02 -1.1023E-02  2.1880E-04  1.5981E-02
  5.1693E-02  2.0896E-01
 non-scf iterations; kpt #     2  , k= (  0.37500  0.50000  0.50000  ), band residuals:
 res:  5.31E-04  5.61E-04  4.36E-04  6.56E-04  3.50E-04  5.47E-04  4.57E-04  4.98E-04
 res:  3.57E-04  2.99E-04  3.61E-04  4.89E-04  5.33E-04  5.56E-04  4.05E-04  5.30E-04
 res:  2.40E-04  3.09E-04  1.72E-04  2.11E-04  1.49E-04  2.86E-04  1.29E-04  9.34E-05
 res:  7.01E-04  3.20E-03  2.31E-03  1.63E-03  1.07E-02  5.26E-02  3.60E-02  1.16E-03
 res:  1.42E-03  1.94E-03  1.47E-03  1.08E-03  1.22E-03  1.67E-03  6.80E-04  1.03E-03
 res:  1.29E-03  2.99E-03  1.12E-03  2.18E-03  3.43E-03  2.26E-03  2.76E-03  2.04E-03
 res:  3.31E-03  5.02E-02  4.47E-02  1.93E-02  1.64E-02  2.76E-02  7.00E-02  1.42E-01
 res:  1.25E-01  2.02E-01  1.35E-01  1.64E-01  1.17E-01  1.99E-01
 ene: -3.18E+00 -3.18E+00 -3.15E+00 -3.13E+00 -2.23E+00 -2.18E+00 -1.98E+00 -1.91E+00
 ene: -1.91E+00 -1.90E+00 -1.90E+00 -1.90E+00 -1.89E+00 -1.88E+00 -1.86E+00 -1.86E+00
 ene: -1.86E+00 -1.85E+00 -1.36E+00 -1.35E+00 -1.34E+00 -1.30E+00 -1.30E+00 -1.29E+00
 ene: -8.43E-01 -8.26E-01 -7.98E-01 -7.80E-01 -3.08E-01 -2.91E-01 -2.84E-01 -2.69E-01
 ene: -2.39E-01 -2.37E-01 -2.25E-01 -2.17E-01 -2.14E-01 -1.97E-01 -1.73E-01 -1.62E-01
 ene: -1.45E-01 -1.42E-01 -1.39E-01 -1.36E-01 -1.24E-01 -1.18E-01 -1.13E-01 -1.11E-01
 ene: -1.07E-01 -9.26E-02 -8.69E-02 -6.44E-02 -5.81E-02 -5.55E-02 -5.26E-02 -3.21E-02
 ene: -1.75E-02  4.26E-03  1.76E-02  3.13E-02  8.37E-02  1.73E-01
 vtowfk : number of one-way 3D ffts skipped in vtowfk until now =16
     eigenvalues (hartree) for   62  bands
              after    2 non-SCF iterations with    4 CG line minimizations
 -3.1762E+00 -3.1758E+00 -3.1452E+00 -3.1295E+00 -2.2257E+00 -2.1766E+00
 -1.9827E+00 -1.9123E+00 -1.9092E+00 -1.9017E+00 -1.9000E+00 -1.8967E+00
 -1.8899E+00 -1.8766E+00 -1.8648E+00 -1.8628E+00 -1.8586E+00 -1.8463E+00
 -1.3556E+00 -1.3495E+00 -1.3432E+00 -1.3046E+00 -1.2978E+00 -1.2893E+00
 -8.4325E-01 -8.2576E-01 -7.9835E-01 -7.7997E-01 -3.0816E-01 -2.9111E-01
 -2.8400E-01 -2.6851E-01 -2.3860E-01 -2.3744E-01 -2.2483E-01 -2.1703E-01
 -2.1418E-01 -1.9711E-01 -1.7301E-01 -1.6159E-01 -1.4472E-01 -1.4246E-01
 -1.3898E-01 -1.3565E-01 -1.2444E-01 -1.1790E-01 -1.1313E-01 -1.1109E-01
 -1.0719E-01 -9.2606E-02 -8.6877E-02 -6.4357E-02 -5.8056E-02 -5.5520E-02
 -5.2590E-02 -3.2108E-02 -1.7463E-02  4.2566E-03  1.7578E-02  3.1338E-02
  8.3748E-02  1.7295E-01
 Total charge density [el/Bohr^3]
      Maximum=    2.0418E+00  at reduced coord.    0.2344    0.0000    0.5722
      Minimum=    1.8165E-04  at reduced coord.    0.7813    0.3438    0.4222
   Integrated=    1.2000E+02
 ETOT  4  -719.37227977370    -5.298E+01 2.022E-01 5.326E+05
 scprqt: <Vxc>= -2.6593162E-01 hartree

 Pulay update with  3 previous iterations:
 mixing of old trial potential : alpha(m:m-4)=  0.242      0.275      0.290E-01  0.454
 scfcv: previous iteration took 31 [s]

 ITER STEP NUMBER     5
 vtorho : nnsclo_now=1, note that nnsclo,dbl_nnsclo,istep=0 0 5
 non-scf iterations; kpt #     1  , k= (  0.12500  0.50000  0.50000  ), band residuals:
 res:  3.79E-05  7.56E-05  3.87E-05  1.40E-04  1.81E-05  2.25E-05  4.54E-05  3.67E-05
 res:  4.17E-05  4.20E-05  1.06E-04  4.00E-05  8.05E-05  3.33E-05  1.15E-04  1.10E-04
 res:  1.12E-04  5.43E-05  7.93E-05  7.77E-05  3.24E-05  1.45E-04  1.30E-04  6.17E-06
 res:  4.03E-04  2.54E-04  1.99E-04  2.44E-04  2.29E-03  3.21E-03  2.17E-03  2.92E-03
 res:  5.40E-03  1.90E-03  9.29E-05  5.08E-03  3.92E-04  7.11E-03  5.40E-03  2.08E-03
 res:  5.69E-03  1.74E-04  4.67E-04  4.18E-04  4.45E-04  6.86E-04  2.16E-04  2.05E-04
 res:  2.11E-03  3.70E-03  1.78E-03  2.82E-04  7.89E-04  7.74E-04  5.02E-04  1.64E-03
 res:  1.42E-02  9.86E-03  2.82E-03  3.53E-03  1.12E-03  2.87E-02
 ene: -3.19E+00 -3.16E+00 -3.16E+00 -3.14E+00 -2.15E+00 -2.14E+00 -2.00E+00 -1.92E+00
 ene: -1.91E+00 -1.90E+00 -1.90E+00 -1.90E+00 -1.89E+00 -1.89E+00 -1.88E+00 -1.87E+00
 ene: -1.86E+00 -1.86E+00 -1.27E+00 -1.27E+00 -1.27E+00 -1.26E+00 -1.26E+00 -1.25E+00
 ene: -6.80E-01 -6.66E-01 -6.60E-01 -5.99E-01 -2.56E-01 -2.44E-01 -2.31E-01 -1.89E-01
 ene: -1.76E-01 -1.67E-01 -1.59E-01 -1.56E-01 -1.56E-01 -1.49E-01 -1.46E-01 -1.39E-01
 ene: -1.36E-01 -1.35E-01 -1.18E-01 -1.15E-01 -1.09E-01 -1.08E-01 -1.01E-01 -9.77E-02
 ene: -8.79E-02 -8.12E-02 -7.15E-02 -6.78E-02 -6.58E-02 -6.27E-02 -5.41E-02 -4.26E-02
 ene: -4.09E-02 -2.80E-02 -1.34E-02 -8.94E-04  3.46E-02  1.05E-01
 vtowfk : number of one-way 3D ffts skipped in vtowfk until now =18
     eigenvalues (hartree) for   62  bands
              after    2 non-SCF iterations with    4 CG line minimizations
 -3.1905E+00 -3.1633E+00 -3.1592E+00 -3.1351E+00 -2.1459E+00 -2.1365E+00
 -1.9984E+00 -1.9173E+00 -1.9111E+00 -1.9040E+00 -1.9013E+00 -1.8989E+00
 -1.8927E+00 -1.8904E+00 -1.8768E+00 -1.8716E+00 -1.8646E+00 -1.8588E+00
 -1.2747E+00 -1.2690E+00 -1.2651E+00 -1.2628E+00 -1.2565E+00 -1.2508E+00
 -6.8034E-01 -6.6594E-01 -6.5976E-01 -5.9855E-01 -2.5636E-01 -2.4372E-01
 -2.3067E-01 -1.8851E-01 -1.7642E-01 -1.6666E-01 -1.5947E-01 -1.5636E-01
 -1.5581E-01 -1.4896E-01 -1.4626E-01 -1.3898E-01 -1.3580E-01 -1.3544E-01
 -1.1821E-01 -1.1546E-01 -1.0917E-01 -1.0842E-01 -1.0086E-01 -9.7702E-02
 -8.7921E-02 -8.1162E-02 -7.1453E-02 -6.7811E-02 -6.5755E-02 -6.2689E-02
 -5.4067E-02 -4.2604E-02 -4.0895E-02 -2.7953E-02 -1.3448E-02 -8.9441E-04
  3.4574E-02  1.0538E-01
 non-scf iterations; kpt #     2  , k= (  0.37500  0.50000  0.50000  ), band residuals:
 res:  3.82E-05  7.65E-05  3.86E-05  1.40E-04  1.59E-05  2.33E-05  4.64E-05  3.62E-05
 res:  4.31E-05  4.22E-05  1.08E-04  4.02E-05  7.68E-05  3.40E-05  1.10E-04  1.12E-04
 res:  1.12E-04  5.44E-05  7.72E-05  7.87E-05  3.25E-05  1.43E-04  1.27E-04  5.62E-06
 res:  4.01E-04  3.34E-04  2.40E-04  2.68E-04  2.61E-03  2.67E-03  3.09E-03  3.64E-03
 res:  4.08E-03  6.05E-03  4.08E-04  5.81E-03  1.70E-03  4.37E-03  5.92E-03  5.95E-04
 res:  4.75E-03  5.38E-03  3.06E-04  9.84E-04  3.00E-04  2.94E-04  1.53E-04  2.63E-04
 res:  7.72E-04  1.18E-03  1.01E-02  5.77E-04  4.60E-04  6.74E-04  6.42E-04  1.60E-03
 res:  8.70E-04  1.09E-02  2.38E-02  2.09E-03  2.22E-02  3.72E-02
 ene: -3.19E+00 -3.16E+00 -3.16E+00 -3.14E+00 -2.15E+00 -2.14E+00 -2.00E+00 -1.92E+00
 ene: -1.91E+00 -1.90E+00 -1.90E+00 -1.90E+00 -1.89E+00 -1.89E+00 -1.88E+00 -1.87E+00
 ene: -1.86E+00 -1.86E+00 -1.27E+00 -1.27E+00 -1.27E+00 -1.26E+00 -1.26E+00 -1.25E+00
 ene: -6.77E-01 -6.68E-01 -6.60E-01 -5.99E-01 -2.56E-01 -2.43E-01 -2.31E-01 -1.88E-01
 ene: -1.74E-01 -1.67E-01 -1.59E-01 -1.58E-01 -1.52E-01 -1.52E-01 -1.48E-01 -1.37E-01
 ene: -1.36E-01 -1.25E-01 -1.18E-01 -1.13E-01 -1.08E-01 -1.06E-01 -1.04E-01 -9.74E-02
 ene: -9.51E-02 -8.28E-02 -7.69E-02 -7.05E-02 -6.81E-02 -6.66E-02 -6.38E-02 -4.24E-02
 ene: -3.56E-02 -3.00E-02 -1.78E-02 -4.11E-03  2.25E-02  8.13E-02
 vtowfk : number of one-way 3D ffts skipped in vtowfk until now =20
     eigenvalues (hartree) for   62  bands
              after    2 non-SCF iterations with    4 CG line minimizations
 -3.1905E+00 -3.1633E+00 -3.1592E+00 -3.1351E+00 -2.1459E+00 -2.1365E+00
 -1.9984E+00 -1.9173E+00 -1.9111E+00 -1.9039E+00 -1.9013E+00 -1.8989E+00
 -1.8928E+00 -1.8903E+00 -1.8768E+00 -1.8716E+00 -1.8646E+00 -1.8588E+00
 -1.2747E+00 -1.2690E+00 -1.2651E+00 -1.2628E+00 -1.2565E+00 -1.2509E+00
 -6.7717E-01 -6.6849E-01 -6.5991E-01 -5.9896E-01 -2.5630E-01 -2.4340E-01
 -2.3081E-01 -1.8812E-01 -1.7445E-01 -1.6673E-01 -1.5898E-01 -1.5772E-01
 -1.5234E-01 -1.5186E-01 -1.4832E-01 -1.3704E-01 -1.3554E-01 -1.2470E-01
 -1.1765E-01 -1.1299E-01 -1.0765E-01 -1.0610E-01 -1.0398E-01 -9.7432E-02
 -9.5121E-02 -8.2760E-02 -7.6900E-02 -7.0518E-02 -6.8057E-02 -6.6600E-02
 -6.3813E-02 -4.2388E-02 -3.5612E-02 -2.9973E-02 -1.7800E-02 -4.1142E-03
  2.2455E-02  8.1308E-02
 Total charge density [el/Bohr^3]
      Maximum=    1.9940E+00  at reduced coord.    0.0781    0.0156    0.7611
      Minimum=    4.4993E-05  at reduced coord.    0.6875    0.5469    0.4278
   Integrated=    1.2000E+02
 ETOT  5  -723.56042009220    -4.188E+00 3.716E-02 1.523E+05
 scprqt: <Vxc>= -2.5623688E-01 hartree

 Pulay update with  4 previous iterations:
 mixing of old trial potential : alpha(m:m-4)=  0.197      0.453E-01  0.261      0.493E-01  0.448
 scfcv: previous iteration took 32 [s]

 ITER STEP NUMBER     6
 vtorho : nnsclo_now=1, note that nnsclo,dbl_nnsclo,istep=0 0 6
 non-scf iterations; kpt #     1  , k= (  0.12500  0.50000  0.50000  ), band residuals:
 res:  7.35E-06  4.19E-06  8.07E-06  5.76E-06  5.88E-06  7.40E-06  8.16E-06  6.01E-06
 res:  3.83E-06  1.68E-05  2.44E-06  6.73E-06  1.25E-05  1.01E-05  1.83E-05  5.40E-06
 res:  3.78E-06  2.11E-05  8.67E-06  1.06E-05  2.84E-05  3.23E-05  4.61E-06  2.31E-06
 res:  2.93E-04  9.06E-05  3.60E-04  2.39E-05  8.50E-06  5.42E-06  4.61E-06  5.35E-04
 res:  3.85E-04  2.32E-05  1.01E-05  5.93E-04  2.79E-05  1.95E-05  7.47E-04  1.56E-03
 res:  1.13E-03  5.93E-05  1.98E-05  1.11E-05  5.41E-04  1.05E-03  1.85E-05  3.22E-05
 res:  1.22E-03  1.98E-03  2.74E-05  3.05E-05  7.33E-05  5.38E-05  2.90E-03  2.18E-04
 res:  1.06E-03  1.75E-04  7.61E-05  1.22E-04  1.17E-04  4.50E-02
 ene: -3.20E+00 -3.17E+00 -3.16E+00 -3.14E+00 -2.12E+00 -2.10E+00 -2.01E+00 -1.93E+00
 ene: -1.92E+00 -1.91E+00 -1.90E+00 -1.90E+00 -1.90E+00 -1.89E+00 -1.88E+00 -1.87E+00
 ene: -1.87E+00 -1.86E+00 -1.25E+00 -1.24E+00 -1.24E+00 -1.23E+00 -1.23E+00 -1.22E+00
 ene: -6.56E-01 -6.44E-01 -5.95E-01 -5.63E-01 -2.66E-01 -2.54E-01 -2.41E-01 -1.74E-01
 ene: -1.68E-01 -1.64E-01 -1.63E-01 -1.56E-01 -1.55E-01 -1.43E-01 -1.34E-01 -1.24E-01
 ene: -1.20E-01 -1.19E-01 -1.14E-01 -1.12E-01 -1.05E-01 -1.03E-01 -8.40E-02 -7.89E-02
 ene: -7.50E-02 -7.30E-02 -7.19E-02 -7.00E-02 -5.44E-02 -4.89E-02 -4.34E-02 -3.57E-02
 ene: -2.73E-02 -2.15E-02 -8.88E-03 -6.66E-03  2.26E-02  2.95E-02
 vtowfk : number of one-way 3D ffts skipped in vtowfk until now =22
     eigenvalues (hartree) for   62  bands
              after    2 non-SCF iterations with    4 CG line minimizations
 -3.1989E+00 -3.1676E+00 -3.1644E+00 -3.1362E+00 -2.1200E+00 -2.1046E+00
 -2.0080E+00 -1.9258E+00 -1.9197E+00 -1.9118E+00 -1.9030E+00 -1.9021E+00
 -1.8994E+00 -1.8929E+00 -1.8833E+00 -1.8737E+00 -1.8665E+00 -1.8649E+00
 -1.2465E+00 -1.2397E+00 -1.2353E+00 -1.2335E+00 -1.2286E+00 -1.2243E+00
 -6.5553E-01 -6.4416E-01 -5.9505E-01 -5.6328E-01 -2.6614E-01 -2.5391E-01
 -2.4073E-01 -1.7450E-01 -1.6820E-01 -1.6419E-01 -1.6284E-01 -1.5643E-01
 -1.5504E-01 -1.4299E-01 -1.3411E-01 -1.2386E-01 -1.2046E-01 -1.1867E-01
 -1.1355E-01 -1.1236E-01 -1.0486E-01 -1.0307E-01 -8.3954E-02 -7.8892E-02
 -7.4998E-02 -7.3003E-02 -7.1851E-02 -7.0005E-02 -5.4380E-02 -4.8932E-02
 -4.3423E-02 -3.5650E-02 -2.7296E-02 -2.1538E-02 -8.8770E-03 -6.6635E-03
  2.2553E-02  2.9458E-02
[...]
                       3.3367150714E-02 -3.6933946794E-01  6.9461832041E-02
                       3.6343245759E-02  3.7082236326E-01  6.7947078516E-02
                       2.9252371055E-03  1.5875037191E-03 -8.3511990485E-03
            fcart5     9.4276724596E-03  5.5865501363E-02  9.4218437263E-02
                      -1.2608255592E-02 -9.5388502935E-02  9.3959060398E-02
                      -4.5295954123E-02 -2.7777252937E-03 -8.0425332798E-02
                      -2.7104687874E-02  5.9340111270E-02 -2.8389552721E-02
                       4.9956317756E-02  9.3910506020E-03 -4.8114358087E-02
                       2.6425083814E-02 -2.7839437313E-02 -5.7418075280E-02
                      -8.5188983098E-02 -2.6620141170E-04 -1.0081886865E-01
                       4.5845194820E-02 -3.8665548582E-01  6.6013567368E-02
                       4.4053074557E-02  3.8675742947E-01  6.6824119007E-02
                      -5.5094627191E-03  1.5732600627E-03 -5.8489965041E-03
-          fftalg         112
              ixc          11
           jdtset        1    2    3    4    5
              kpt      1.25000000E-01  5.00000000E-01  5.00000000E-01
                       3.75000000E-01  5.00000000E-01  5.00000000E-01
           kptopt           2
         kptrlatt        4    0    0      0    1    0      0    0    1
          kptrlen      8.68080000E+00
P           mkmem           2
            natom          10
            nband          62
           ndtset           5
            ngfft          64      64     180
             nkpt           2
            nstep          40
             nsym           1
           ntypat           3
              occ      2.000000  2.000000  2.000000  2.000000  2.000000  2.000000
                       2.000000  2.000000  2.000000  2.000000  2.000000  2.000000
                       2.000000  2.000000  2.000000  2.000000  2.000000  2.000000
                       2.000000  2.000000  2.000000  2.000000  2.000000  2.000000
                       2.000000  2.000000  2.000000  2.000000  2.000000  2.000000
                       2.000000  2.000000  2.000000  2.000000  2.000000  2.000000
                       2.000000  2.000000  2.000000  2.000000  2.000000  2.000000
                       2.000000  2.000000  2.000000  2.000000  2.000000  2.000000
                       2.000000  2.000000  2.000000  2.000000  2.000000  2.000000
                       2.000000  2.000000  2.000000  2.000000  2.000000  2.000000
                       0.000000  0.000000
           shiftk      5.00000000E-01  5.00000000E-01  5.00000000E-01
          spgroup           1
           strten1     2.5782040748E-04 -8.4160386580E-04  2.8745411573E-04
                       1.8052325153E-05 -1.4106498380E-04 -8.7670299820E-05
           strten2     2.8757811500E-04 -8.0097122692E-04  3.5419418764E-04
                       1.5121655505E-05 -1.4478153319E-04 -8.8934599807E-05
           strten3     2.4924879625E-04 -8.2252551270E-04  2.7715534848E-04
                       2.1395124370E-05 -1.3721696665E-04 -8.3658354002E-05
           strten4     3.7938183797E-04 -7.7125885056E-04  5.5363616270E-04
                       2.3276364868E-05 -1.3801078786E-04 -8.0798228472E-05
           strten5     2.3355840038E-04 -8.1766057947E-04  2.4866212291E-04
                       2.2453287539E-05 -1.3231917124E-04 -8.1876995558E-05
           toldfe      1.00000000E-02 Hartree
            typat      1  1  2  2  2  2  3  3  3  3
              wtk        0.50000    0.50000
           xangst1     0.0000000000E+00  0.0000000000E+00  0.0000000000E+00
                       2.2968407562E+00  1.4793678043E+00  2.2968407562E+00
                       1.4240158683E+00  0.0000000000E+00  1.4240158683E+00
                       3.1696656440E+00  0.0000000000E+00  3.1696656440E+00
                       8.7282488785E-01  1.4793678043E+00  3.7208566245E+00
                       3.7208566245E+00  1.4793678043E+00  8.7282488785E-01
                       8.7282488785E-01  0.0000000000E+00  7.2395675553E+00
                       1.9453612542E+00  1.3755961537E+00  8.6151637090E+00
                       1.9453612542E+00 -1.3755961537E+00  8.6151637090E+00
                       0.0000000000E+00  0.0000000000E+00  9.9907069450E+00
           xangst2     0.0000000000E+00  0.0000000000E+00  0.0000000000E+00
                       2.2968407562E+00  1.4793678043E+00  2.2968407562E+00
                       1.4240158683E+00  0.0000000000E+00  1.4240158683E+00
                       3.1696656440E+00  0.0000000000E+00  3.1696656440E+00
                       8.7282488785E-01  1.4793678043E+00  3.7208566245E+00
                       3.7208566245E+00  1.4793678043E+00  8.7282488785E-01
                       8.7282488785E-01  0.0000000000E+00  7.3395820477E+00
                       1.9453612542E+00  1.3755961537E+00  8.7151782014E+00
                       1.9453612542E+00 -1.3755961537E+00  8.7151782014E+00
                       0.0000000000E+00  0.0000000000E+00  1.0090721437E+01
           xangst3     0.0000000000E+00  0.0000000000E+00  0.0000000000E+00
                       2.2968407562E+00  1.4793678043E+00  2.2968407562E+00
                       1.4240158683E+00  0.0000000000E+00  1.4240158683E+00
                       3.1696656440E+00  0.0000000000E+00  3.1696656440E+00
                       8.7282488785E-01  1.4793678043E+00  3.7208566245E+00
                       3.7208566245E+00  1.4793678043E+00  8.7282488785E-01
                       8.7282488785E-01  0.0000000000E+00  7.4395965401E+00
                       1.9453612542E+00  1.3755961537E+00  8.8151926939E+00
                       1.9453612542E+00 -1.3755961537E+00  8.8151926939E+00
                       0.0000000000E+00  0.0000000000E+00  1.0190735930E+01
           xangst4     0.0000000000E+00  0.0000000000E+00  0.0000000000E+00
                       2.2968407562E+00  1.4793678043E+00  2.2968407562E+00
                       1.4240158683E+00  0.0000000000E+00  1.4240158683E+00
                       3.1696656440E+00  0.0000000000E+00  3.1696656440E+00
                       8.7282488785E-01  1.4793678043E+00  3.7208566245E+00
                       3.7208566245E+00  1.4793678043E+00  8.7282488785E-01
                       8.7282488785E-01  0.0000000000E+00  7.5396110325E+00
                       1.9453612542E+00  1.3755961537E+00  8.9152071863E+00
                       1.9453612542E+00 -1.3755961537E+00  8.9152071863E+00
                       0.0000000000E+00  0.0000000000E+00  1.0290750422E+01
           xangst5     0.0000000000E+00  0.0000000000E+00  0.0000000000E+00
                       2.2968407562E+00  1.4793678043E+00  2.2968407562E+00
                       1.4240158683E+00  0.0000000000E+00  1.4240158683E+00
                       3.1696656440E+00  0.0000000000E+00  3.1696656440E+00
                       8.7282488785E-01  1.4793678043E+00  3.7208566245E+00
                       3.7208566245E+00  1.4793678043E+00  8.7282488785E-01
                       8.7282488785E-01  0.0000000000E+00  7.6396255250E+00
                       1.9453612542E+00  1.3755961537E+00  9.0152216787E+00
                       1.9453612542E+00 -1.3755961537E+00  9.0152216787E+00
                       0.0000000000E+00  0.0000000000E+00  1.0390764915E+01
            xcart1     0.0000000000E+00  0.0000000000E+00  0.0000000000E+00
                       4.3404000000E+00  2.7956000000E+00  4.3404000000E+00
                       2.6910000000E+00  0.0000000000E+00  2.6910000000E+00
                       5.9898000000E+00  0.0000000000E+00  5.9898000000E+00
                       1.6494000000E+00  2.7956000000E+00  7.0314000000E+00
                       7.0314000000E+00  2.7956000000E+00  1.6494000000E+00
                       1.6494000000E+00  0.0000000000E+00  1.3680800000E+01
                       3.6762000000E+00  2.5995000000E+00  1.6280300000E+01
                       3.6762000000E+00 -2.5995000000E+00  1.6280300000E+01
                       0.0000000000E+00  0.0000000000E+00  1.8879700000E+01
            xcart2     0.0000000000E+00  0.0000000000E+00  0.0000000000E+00
                       4.3404000000E+00  2.7956000000E+00  4.3404000000E+00
                       2.6910000000E+00  0.0000000000E+00  2.6910000000E+00
                       5.9898000000E+00  0.0000000000E+00  5.9898000000E+00
                       1.6494000000E+00  2.7956000000E+00  7.0314000000E+00
                       7.0314000000E+00  2.7956000000E+00  1.6494000000E+00
                       1.6494000000E+00  0.0000000000E+00  1.3869800000E+01
                       3.6762000000E+00  2.5995000000E+00  1.6469300000E+01
                       3.6762000000E+00 -2.5995000000E+00  1.6469300000E+01
                       0.0000000000E+00  0.0000000000E+00  1.9068700000E+01
            xcart3     0.0000000000E+00  0.0000000000E+00  0.0000000000E+00
                       4.3404000000E+00  2.7956000000E+00  4.3404000000E+00
                       2.6910000000E+00  0.0000000000E+00  2.6910000000E+00
                       5.9898000000E+00  0.0000000000E+00  5.9898000000E+00
                       1.6494000000E+00  2.7956000000E+00  7.0314000000E+00
                       7.0314000000E+00  2.7956000000E+00  1.6494000000E+00
                       1.6494000000E+00  0.0000000000E+00  1.4058800000E+01
                       3.6762000000E+00  2.5995000000E+00  1.6658300000E+01
                       3.6762000000E+00 -2.5995000000E+00  1.6658300000E+01
                       0.0000000000E+00  0.0000000000E+00  1.9257700000E+01
            xcart4     0.0000000000E+00  0.0000000000E+00  0.0000000000E+00
                       4.3404000000E+00  2.7956000000E+00  4.3404000000E+00
                       2.6910000000E+00  0.0000000000E+00  2.6910000000E+00
                       5.9898000000E+00  0.0000000000E+00  5.9898000000E+00
                       1.6494000000E+00  2.7956000000E+00  7.0314000000E+00
                       7.0314000000E+00  2.7956000000E+00  1.6494000000E+00
                       1.6494000000E+00  0.0000000000E+00  1.4247800000E+01
                       3.6762000000E+00  2.5995000000E+00  1.6847300000E+01
                       3.6762000000E+00 -2.5995000000E+00  1.6847300000E+01
                       0.0000000000E+00  0.0000000000E+00  1.9446700000E+01
            xcart5     0.0000000000E+00  0.0000000000E+00  0.0000000000E+00
                       4.3404000000E+00  2.7956000000E+00  4.3404000000E+00
                       2.6910000000E+00  0.0000000000E+00  2.6910000000E+00
                       5.9898000000E+00  0.0000000000E+00  5.9898000000E+00
                       1.6494000000E+00  2.7956000000E+00  7.0314000000E+00
                       7.0314000000E+00  2.7956000000E+00  1.6494000000E+00
                       1.6494000000E+00  0.0000000000E+00  1.4436800000E+01
                       3.6762000000E+00  2.5995000000E+00  1.7036300000E+01
                       3.6762000000E+00 -2.5995000000E+00  1.7036300000E+01
                       0.0000000000E+00  0.0000000000E+00  1.9635700000E+01
             xred1     0.0000000000E+00  0.0000000000E+00  0.0000000000E+00
                       5.0000000000E-01  3.2204405124E-01  1.7361600000E-01
                       3.0999447056E-01  0.0000000000E+00  1.0764000000E-01
                       6.9000552944E-01  0.0000000000E+00  2.3959200000E-01
                       1.9000552944E-01  3.2204405124E-01  2.8125600000E-01
                       8.0999447056E-01  3.2204405124E-01  6.5976000000E-02
                       1.9000552944E-01  0.0000000000E+00  5.4723200000E-01
                       4.2348631463E-01  2.9945396738E-01  6.5121200000E-01
                       4.2348631463E-01 -2.9945396738E-01  6.5121200000E-01
                       0.0000000000E+00  0.0000000000E+00  7.5518800000E-01
             xred2     0.0000000000E+00  0.0000000000E+00  0.0000000000E+00
                       5.0000000000E-01  3.2204405124E-01  1.7231331137E-01
                       3.0999447056E-01  0.0000000000E+00  1.0683234745E-01
                       6.9000552944E-01  0.0000000000E+00  2.3779427528E-01
                       1.9000552944E-01  3.2204405124E-01  2.7914565882E-01
                       8.0999447056E-01  3.2204405124E-01  6.5480963913E-02
                       1.9000552944E-01  0.0000000000E+00  5.5062924292E-01
                       4.2348631463E-01  2.9945396738E-01  6.5382905236E-01
                       4.2348631463E-01 -2.9945396738E-01  6.5382905236E-01
                       0.0000000000E+00  0.0000000000E+00  7.5702489182E-01
             xred3     0.0000000000E+00  0.0000000000E+00  0.0000000000E+00
                       5.0000000000E-01  3.2204405124E-01  1.7103002601E-01
                       3.0999447056E-01  0.0000000000E+00  1.0603672472E-01
                       6.9000552944E-01  0.0000000000E+00  2.3602332729E-01
                       1.9000552944E-01  3.2204405124E-01  2.7706675073E-01
                       8.0999447056E-01  3.2204405124E-01  6.4993301285E-02
                       1.9000552944E-01  0.0000000000E+00  5.5397588462E-01
                       4.2348631463E-01  2.9945396738E-01  6.5640712428E-01
                       4.2348631463E-01 -2.9945396738E-01  6.5640712428E-01
                       0.0000000000E+00  0.0000000000E+00  7.5883442352E-01
             xred4     0.0000000000E+00  0.0000000000E+00  0.0000000000E+00
                       5.0000000000E-01  3.2204405124E-01  1.6976571362E-01
                       3.0999447056E-01  0.0000000000E+00  1.0525286502E-01
                       6.9000552944E-01  0.0000000000E+00  2.3427856221E-01
                       1.9000552944E-01  3.2204405124E-01  2.7501857864E-01
                       8.0999447056E-01  3.2204405124E-01  6.4512848594E-02
                       1.9000552944E-01  0.0000000000E+00  5.5727304729E-01
                       4.2348631463E-01  2.9945396738E-01  6.5894708022E-01
                       4.2348631463E-01 -2.9945396738E-01  6.5894708022E-01
                       0.0000000000E+00  0.0000000000E+00  7.6061720186E-01
             xred5     0.0000000000E+00  0.0000000000E+00  0.0000000000E+00
                       5.0000000000E-01  3.2204405124E-01  1.6851995651E-01
                       3.0999447056E-01  0.0000000000E+00  1.0448050940E-01
                       6.9000552944E-01  0.0000000000E+00  2.3255940363E-01
                       1.9000552944E-01  3.2204405124E-01  2.7300046591E-01
                       8.0999447056E-01  3.2204405124E-01  6.4039447119E-02
                       1.9000552944E-01  0.0000000000E+00  5.6052182016E-01
                       4.2348631463E-01  2.9945396738E-01  6.6144975928E-01
                       4.2348631463E-01 -2.9945396738E-01  6.6144975928E-01
                       0.0000000000E+00  0.0000000000E+00  7.6237381581E-01
            znucl       22.00000    8.00000   46.00000

================================================================================
  

================================================================================

 Suggested references for the acknowledgment of ABINIT usage.

 The users of ABINIT have little formal obligations with respect to the ABINIT group
 (those specified in the GNU General Public License, http://www.gnu.org/copyleft/gpl.txt).
 However, it is common practice in the scientific literature,
 to acknowledge the efforts of people that have made the research possible.
 In this spirit, please find below suggested citations of work written by ABINIT developers,
 corresponding to implementations inside of ABINIT that you have used in the present run.
 Note also that it will be of great value to readers of publications presenting these results,
 to read papers enabling them to understand the theoretical formalism and details
 of the ABINIT implementation.
 For information on why they are suggested, see also https://www.abinit.org/about/?text=acknowledgments.
-
- [1] Recent developments in the ABINIT software package.
- Computer Phys. Comm. 205, 106 (2016).
- X.Gonze, F.Jollet, F.Abreu Araujo, D.Adams, B.Amadon, T.Applencourt,
- C.Audouze, J.-M.Beuken, J.Bieder, A.Bokhanchuk, E.Bousquet, F.Bruneval
- D.Caliste, M.Cote, F.Dahm, F.Da Pieve, M.Delaveau, M.Di Gennaro,
- B.Dorado, C.Espejo, G.Geneste, L.Genovese, A.Gerossier, M.Giantomassi,
- Y.Gillet, D.R.Hamann, L.He, G.Jomard, J.Laflamme Janssen, S.Le Roux,
- A.Levitt, A.Lherbier, F.Liu, I.Lukacevic, A.Martin, C.Martins,
- M.J.T.Oliveira, S.Ponce, Y.Pouillon, T.Rangel, G.-M.Rignanese,
- A.H.Romero, B.Rousseau, O.Rubel, A.A.Shukri, M.Stankovski, M.Torrent,
- M.J.Van Setten, B.Van Troeye, M.J.Verstraete, D.Waroquier, J.Wiktor,
- B.Xue, A.Zhou, J.W.Zwanziger.
- Comment : the fourth generic paper describing the ABINIT project.
- Note that a version of this paper, that is not formatted for Computer Phys. Comm. 
- is available at https://www.abinit.org/about/ABINIT16.pdf .
- The licence allows the authors to put it on the Web.
-
- [2] Optimized norm-conserving Vanderbilt pseudopotentials.
- D.R. Hamann, Phys. Rev. B 88, 085117 (2013).
- Comment: Some pseudopotential generated using the ONCVPSP code were used.
-
- [3] ABINIT : First-principles approach of materials and nanosystem properties.
- Computer Phys. Comm. 180, 2582-2615 (2009).
- X. Gonze, B. Amadon, P.-M. Anglade, J.-M. Beuken, F. Bottin, P. Boulanger, F. Bruneval,
- D. Caliste, R. Caracas, M. Cote, T. Deutsch, L. Genovese, Ph. Ghosez, M. Giantomassi
- S. Goedecker, D.R. Hamann, P. Hermet, F. Jollet, G. Jomard, S. Leroux, M. Mancini, S. Mazevet,
- M.J.T. Oliveira, G. Onida, Y. Pouillon, T. Rangel, G.-M. Rignanese, D. Sangalli, R. Shaltaf,
- M. Torrent, M.J. Verstraete, G. Zerah, J.W. Zwanziger
- Comment : the third generic paper describing the ABINIT project.
- Note that a version of this paper, that is not formatted for Computer Phys. Comm. 
- is available at https://www.abinit.org/about/ABINIT_CPC_v10.pdf .
- The licence allows the authors to put it on the Web.
-
- [4] A brief introduction to the ABINIT software package.
- Z. Kristallogr. 220, 558-562 (2005).
- X. Gonze, G.-M. Rignanese, M. Verstraete, J.-M. Beuken, Y. Pouillon, R. Caracas, F. Jollet,
- M. Torrent, G. Zerah, M. Mikami, Ph. Ghosez, M. Veithen, J.-Y. Raty, V. Olevano, F. Bruneval,
- L. Reining, R. Godby, G. Onida, D.R. Hamann, and D.C. Allan.
- Comment : the second generic paper describing the ABINIT project. Note that this paper
- should be cited especially if you are using the GW part of ABINIT, as several authors
- of this part are not in the list of authors of the first or third paper.
- The .pdf of the latter paper is available at https://www.abinit.org/about/zfk_0505-06_558-562.pdf.
- Note that it should not redistributed (Copyright by Oldenburg Wissenshaftverlag,
- the licence allows the authors to put it on the Web).
-
- And optionally:
-
- [5] First-principles computation of material properties : the ABINIT software project. 
- X. Gonze, J.-M. Beuken, R. Caracas, F. Detraux, M. Fuchs, G.-M. Rignanese, L. Sindic,
- M. Verstraete, G. Zerah, F. Jollet, M. Torrent, A. Roy, M. Mikami, Ph. Ghosez, J.-Y. Raty, D.C. Allan.
- Computational Materials Science 25, 478-492 (2002). http://dx.doi.org/10.1016/S0927-0256(02)00325-7
- Comment : the original paper describing the ABINIT project.
  Asked to delete not existent file: manualGeomOpt2_STATUS

 Calculation completed.
.Delivered   0 WARNINGs and  10 COMMENTs to log file.

--- !FinalSummary
program: abinit
version: 8.6.3
start_datetime: Thu Apr 26 14:06:48 2018
end_datetime: Thu Apr 26 16:00:32 2018
overall_cpu_time:        6800.2
overall_wall_time:        6824.4
exit_requested_by_user: no 
timelimit: 0
pseudos: 
    Ti  : ea4ed3d71d7ed9998c7c8ddd5e23a4a6
    O   : abbcf0645b4a6d69360cd16bcad3e730
    Pd  : 4144628137bc01fa80f914e5e2c5b797
usepaw: 0
mpi_procs: 1
omp_threads: 1
num_warnings: 0
num_comments: 10
...
