
.Version 8.6.3 of ABINIT 
.(sequential version, prepared for a x86_64_linux_gnu5.4 computer) 

.Copyright (C) 1998-2017 ABINIT group . 
 ABINIT comes with ABSOLUTELY NO WARRANTY.
 It is free software, and you are welcome to redistribute it
 under certain conditions (GNU General Public License,
 see ~abinit/COPYING or http://www.gnu.org/copyleft/gpl.txt).

 ABINIT is a project of the Universite Catholique de Louvain,
 Corning Inc. and other collaborators, see ~abinit/doc/developers/contributors.txt .
 Please read ~abinit/doc/users/acknowledgments.html for suggested
 acknowledgments of the ABINIT effort.
 For more information, see https://www.abinit.org .

.Starting date : Thu 26 Apr 2018.
- ( at 14h06 )
  
- input  file    -> manualGeomOpt2.in
- output file    -> mamualGeomOpt2.out
- root for input  files -> manualGeomOpt2_i
- root for output files -> manualGeomOpt2_o


 DATASET    1 : space group P1 (#  1); Bravais aP (primitive triclinic)
================================================================================
 Values of the parameters that define the memory need for DATASET  1.
     intxc =       0    ionmov =       0      iscf =       7    lmnmax =       6
     lnmax =       6     mgfft =     180  mpssoang =       3    mqgrid =    8718
     natom =      10  nloc_mem =       1    nspden =       1   nspinor =       1
    nsppol =       1      nsym =       1    n1xccc =    2501    ntypat =       3
    occopt =       1   xclevel =       2
-    mband =          62        mffmem =           1         mkmem =           2
       mpw =       41884          nfft =      737280          nkpt =           2
================================================================================
P This job should need less than                     303.659 Mbytes of memory.
  Rough estimation (10% accuracy) of disk space for files :
_ WF disk file :     79.250 Mbytes ; DEN or POT disk file :      5.627 Mbytes.
================================================================================


 DATASET    2 : space group P1 (#  1); Bravais aP (primitive triclinic)
================================================================================
 Values of the parameters that define the memory need for DATASET  2.
     intxc =       0    ionmov =       0      iscf =       7    lmnmax =       6
     lnmax =       6     mgfft =     180  mpssoang =       3    mqgrid =    8784
     natom =      10  nloc_mem =       1    nspden =       1   nspinor =       1
    nsppol =       1      nsym =       1    n1xccc =    2501    ntypat =       3
    occopt =       1   xclevel =       2
-    mband =          62        mffmem =           1         mkmem =           2
       mpw =       42228          nfft =      737280          nkpt =           2
================================================================================
P This job should need less than                     304.340 Mbytes of memory.
  Rough estimation (10% accuracy) of disk space for files :
_ WF disk file :     79.901 Mbytes ; DEN or POT disk file :      5.627 Mbytes.
================================================================================


 DATASET    3 : space group P1 (#  1); Bravais aP (primitive triclinic)
================================================================================
 Values of the parameters that define the memory need for DATASET  3.
     intxc =       0    ionmov =       0      iscf =       7    lmnmax =       6
     lnmax =       6     mgfft =     180  mpssoang =       3    mqgrid =    8850
     natom =      10  nloc_mem =       1    nspden =       1   nspinor =       1
    nsppol =       1      nsym =       1    n1xccc =    2501    ntypat =       3
    occopt =       1   xclevel =       2
-    mband =          62        mffmem =           1         mkmem =           2
       mpw =       42496          nfft =      737280          nkpt =           2
================================================================================
P This job should need less than                     304.875 Mbytes of memory.
  Rough estimation (10% accuracy) of disk space for files :
_ WF disk file :     80.408 Mbytes ; DEN or POT disk file :      5.627 Mbytes.
================================================================================


 DATASET    4 : space group P1 (#  1); Bravais aP (primitive triclinic)
================================================================================
 Values of the parameters that define the memory need for DATASET  4.
     intxc =       0    ionmov =       0      iscf =       7    lmnmax =       6
     lnmax =       6     mgfft =     180  mpssoang =       3    mqgrid =    8915
     natom =      10  nloc_mem =       1    nspden =       1   nspinor =       1
    nsppol =       1      nsym =       1    n1xccc =    2501    ntypat =       3
    occopt =       1   xclevel =       2
-    mband =          62        mffmem =           1         mkmem =           2
       mpw =       42808          nfft =      737280          nkpt =           2
================================================================================
P This job should need less than                     305.494 Mbytes of memory.
  Rough estimation (10% accuracy) of disk space for files :
_ WF disk file :     80.999 Mbytes ; DEN or POT disk file :      5.627 Mbytes.
================================================================================


 DATASET    5 : space group P1 (#  1); Bravais aP (primitive triclinic)
================================================================================
 Values of the parameters that define the memory need for DATASET  5.
     intxc =       0    ionmov =       0      iscf =       7    lmnmax =       6
     lnmax =       6     mgfft =     180  mpssoang =       3    mqgrid =    8981
     natom =      10  nloc_mem =       1    nspden =       1   nspinor =       1
    nsppol =       1      nsym =       1    n1xccc =    2501    ntypat =       3
    occopt =       1   xclevel =       2
-    mband =          62        mffmem =           1         mkmem =           2
       mpw =       43156          nfft =      737280          nkpt =           2
================================================================================
P This job should need less than                     306.183 Mbytes of memory.
  Rough estimation (10% accuracy) of disk space for files :
_ WF disk file :     81.657 Mbytes ; DEN or POT disk file :      5.627 Mbytes.
================================================================================

--------------------------------------------------------------------------------
------------- Echo of variables that govern the present computation ------------
--------------------------------------------------------------------------------
-
- outvars: echo of selected default values                                      
-   iomode0 =  0 , fftalg0 =112 , wfoptalg0 =  0
-
- outvars: echo of global parameters not present in the input file              
-  max_nthreads =    0
-
 -outvars: echo values of preprocessed input variables --------
            acell1     8.6808000000E+00  8.6808000000E+00  2.5000000000E+01 Bohr
            acell2     8.6808000000E+00  8.6808000000E+00  2.5189000000E+01 Bohr
            acell3     8.6808000000E+00  8.6808000000E+00  2.5378000000E+01 Bohr
            acell4     8.6808000000E+00  8.6808000000E+00  2.5567000000E+01 Bohr
            acell5     8.6808000000E+00  8.6808000000E+00  2.5756000000E+01 Bohr
              amu      4.78800000E+01  1.59994000E+01  1.06420000E+02
           diemac      1.20000000E+01
             ecut      6.00000000E+01 Hartree
-          fftalg         112
              ixc          11
           jdtset        1    2    3    4    5
              kpt      1.25000000E-01  5.00000000E-01  5.00000000E-01
                       3.75000000E-01  5.00000000E-01  5.00000000E-01
           kptopt           2
         kptrlatt        4    0    0      0    1    0      0    0    1
          kptrlen      8.68080000E+00
P           mkmem           2
            natom          10
            nband          62
           ndtset           5
            ngfft          64      64     180
             nkpt           2
            nstep          40
             nsym           1
           ntypat           3
              occ      2.000000  2.000000  2.000000  2.000000  2.000000  2.000000
                       2.000000  2.000000  2.000000  2.000000  2.000000  2.000000
                       2.000000  2.000000  2.000000  2.000000  2.000000  2.000000
                       2.000000  2.000000  2.000000  2.000000  2.000000  2.000000
                       2.000000  2.000000  2.000000  2.000000  2.000000  2.000000
                       2.000000  2.000000  2.000000  2.000000  2.000000  2.000000
                       2.000000  2.000000  2.000000  2.000000  2.000000  2.000000
                       2.000000  2.000000  2.000000  2.000000  2.000000  2.000000
                       2.000000  2.000000  2.000000  2.000000  2.000000  2.000000
                       2.000000  2.000000  2.000000  2.000000  2.000000  2.000000
                       0.000000  0.000000
           shiftk      5.00000000E-01  5.00000000E-01  5.00000000E-01
          spgroup           1
           toldfe      1.00000000E-02 Hartree
            typat      1  1  2  2  2  2  3  3  3  3
              wtk        0.50000    0.50000
           xangst1     0.0000000000E+00  0.0000000000E+00  0.0000000000E+00
                       2.2968407562E+00  1.4793678043E+00  2.2968407562E+00
                       1.4240158683E+00  0.0000000000E+00  1.4240158683E+00
                       3.1696656440E+00  0.0000000000E+00  3.1696656440E+00
                       8.7282488785E-01  1.4793678043E+00  3.7208566245E+00
                       3.7208566245E+00  1.4793678043E+00  8.7282488785E-01
                       8.7282488785E-01  0.0000000000E+00  7.2395675553E+00
                       1.9453612542E+00  1.3755961537E+00  8.6151637090E+00
                       1.9453612542E+00 -1.3755961537E+00  8.6151637090E+00
                       0.0000000000E+00  0.0000000000E+00  9.9907069450E+00
           xangst2     0.0000000000E+00  0.0000000000E+00  0.0000000000E+00
                       2.2968407562E+00  1.4793678043E+00  2.2968407562E+00
                       1.4240158683E+00  0.0000000000E+00  1.4240158683E+00
                       3.1696656440E+00  0.0000000000E+00  3.1696656440E+00
                       8.7282488785E-01  1.4793678043E+00  3.7208566245E+00
                       3.7208566245E+00  1.4793678043E+00  8.7282488785E-01
                       8.7282488785E-01  0.0000000000E+00  7.3395820477E+00
                       1.9453612542E+00  1.3755961537E+00  8.7151782014E+00
                       1.9453612542E+00 -1.3755961537E+00  8.7151782014E+00
                       0.0000000000E+00  0.0000000000E+00  1.0090721437E+01
           xangst3     0.0000000000E+00  0.0000000000E+00  0.0000000000E+00
                       2.2968407562E+00  1.4793678043E+00  2.2968407562E+00
                       1.4240158683E+00  0.0000000000E+00  1.4240158683E+00
                       3.1696656440E+00  0.0000000000E+00  3.1696656440E+00
                       8.7282488785E-01  1.4793678043E+00  3.7208566245E+00
                       3.7208566245E+00  1.4793678043E+00  8.7282488785E-01
                       8.7282488785E-01  0.0000000000E+00  7.4395965401E+00
                       1.9453612542E+00  1.3755961537E+00  8.8151926939E+00
                       1.9453612542E+00 -1.3755961537E+00  8.8151926939E+00
                       0.0000000000E+00  0.0000000000E+00  1.0190735930E+01
           xangst4     0.0000000000E+00  0.0000000000E+00  0.0000000000E+00
                       2.2968407562E+00  1.4793678043E+00  2.2968407562E+00
                       1.4240158683E+00  0.0000000000E+00  1.4240158683E+00
                       3.1696656440E+00  0.0000000000E+00  3.1696656440E+00
                       8.7282488785E-01  1.4793678043E+00  3.7208566245E+00
                       3.7208566245E+00  1.4793678043E+00  8.7282488785E-01
                       8.7282488785E-01  0.0000000000E+00  7.5396110325E+00
                       1.9453612542E+00  1.3755961537E+00  8.9152071863E+00
                       1.9453612542E+00 -1.3755961537E+00  8.9152071863E+00
                       0.0000000000E+00  0.0000000000E+00  1.0290750422E+01
           xangst5     0.0000000000E+00  0.0000000000E+00  0.0000000000E+00
                       2.2968407562E+00  1.4793678043E+00  2.2968407562E+00
                       1.4240158683E+00  0.0000000000E+00  1.4240158683E+00
                       3.1696656440E+00  0.0000000000E+00  3.1696656440E+00
                       8.7282488785E-01  1.4793678043E+00  3.7208566245E+00
                       3.7208566245E+00  1.4793678043E+00  8.7282488785E-01
                       8.7282488785E-01  0.0000000000E+00  7.6396255250E+00
                       1.9453612542E+00  1.3755961537E+00  9.0152216787E+00
                       1.9453612542E+00 -1.3755961537E+00  9.0152216787E+00
                       0.0000000000E+00  0.0000000000E+00  1.0390764915E+01
            xcart1     0.0000000000E+00  0.0000000000E+00  0.0000000000E+00
                       4.3404000000E+00  2.7956000000E+00  4.3404000000E+00
                       2.6910000000E+00  0.0000000000E+00  2.6910000000E+00
                       5.9898000000E+00  0.0000000000E+00  5.9898000000E+00
                       1.6494000000E+00  2.7956000000E+00  7.0314000000E+00
                       7.0314000000E+00  2.7956000000E+00  1.6494000000E+00
                       1.6494000000E+00  0.0000000000E+00  1.3680800000E+01
                       3.6762000000E+00  2.5995000000E+00  1.6280300000E+01
                       3.6762000000E+00 -2.5995000000E+00  1.6280300000E+01
                       0.0000000000E+00  0.0000000000E+00  1.8879700000E+01
            xcart2     0.0000000000E+00  0.0000000000E+00  0.0000000000E+00
                       4.3404000000E+00  2.7956000000E+00  4.3404000000E+00
                       2.6910000000E+00  0.0000000000E+00  2.6910000000E+00
                       5.9898000000E+00  0.0000000000E+00  5.9898000000E+00
                       1.6494000000E+00  2.7956000000E+00  7.0314000000E+00
                       7.0314000000E+00  2.7956000000E+00  1.6494000000E+00
                       1.6494000000E+00  0.0000000000E+00  1.3869800000E+01
                       3.6762000000E+00  2.5995000000E+00  1.6469300000E+01
                       3.6762000000E+00 -2.5995000000E+00  1.6469300000E+01
                       0.0000000000E+00  0.0000000000E+00  1.9068700000E+01
            xcart3     0.0000000000E+00  0.0000000000E+00  0.0000000000E+00
                       4.3404000000E+00  2.7956000000E+00  4.3404000000E+00
                       2.6910000000E+00  0.0000000000E+00  2.6910000000E+00
                       5.9898000000E+00  0.0000000000E+00  5.9898000000E+00
                       1.6494000000E+00  2.7956000000E+00  7.0314000000E+00
                       7.0314000000E+00  2.7956000000E+00  1.6494000000E+00
                       1.6494000000E+00  0.0000000000E+00  1.4058800000E+01
                       3.6762000000E+00  2.5995000000E+00  1.6658300000E+01
                       3.6762000000E+00 -2.5995000000E+00  1.6658300000E+01
                       0.0000000000E+00  0.0000000000E+00  1.9257700000E+01
            xcart4     0.0000000000E+00  0.0000000000E+00  0.0000000000E+00
                       4.3404000000E+00  2.7956000000E+00  4.3404000000E+00
                       2.6910000000E+00  0.0000000000E+00  2.6910000000E+00
                       5.9898000000E+00  0.0000000000E+00  5.9898000000E+00
                       1.6494000000E+00  2.7956000000E+00  7.0314000000E+00
                       7.0314000000E+00  2.7956000000E+00  1.6494000000E+00
                       1.6494000000E+00  0.0000000000E+00  1.4247800000E+01
                       3.6762000000E+00  2.5995000000E+00  1.6847300000E+01
                       3.6762000000E+00 -2.5995000000E+00  1.6847300000E+01
                       0.0000000000E+00  0.0000000000E+00  1.9446700000E+01
            xcart5     0.0000000000E+00  0.0000000000E+00  0.0000000000E+00
                       4.3404000000E+00  2.7956000000E+00  4.3404000000E+00
                       2.6910000000E+00  0.0000000000E+00  2.6910000000E+00
                       5.9898000000E+00  0.0000000000E+00  5.9898000000E+00
                       1.6494000000E+00  2.7956000000E+00  7.0314000000E+00
                       7.0314000000E+00  2.7956000000E+00  1.6494000000E+00
                       1.6494000000E+00  0.0000000000E+00  1.4436800000E+01
                       3.6762000000E+00  2.5995000000E+00  1.7036300000E+01
                       3.6762000000E+00 -2.5995000000E+00  1.7036300000E+01
                       0.0000000000E+00  0.0000000000E+00  1.9635700000E+01
             xred1     0.0000000000E+00  0.0000000000E+00  0.0000000000E+00
                       5.0000000000E-01  3.2204405124E-01  1.7361600000E-01
                       3.0999447056E-01  0.0000000000E+00  1.0764000000E-01
                       6.9000552944E-01  0.0000000000E+00  2.3959200000E-01
                       1.9000552944E-01  3.2204405124E-01  2.8125600000E-01
                       8.0999447056E-01  3.2204405124E-01  6.5976000000E-02
                       1.9000552944E-01  0.0000000000E+00  5.4723200000E-01
                       4.2348631463E-01  2.9945396738E-01  6.5121200000E-01
                       4.2348631463E-01 -2.9945396738E-01  6.5121200000E-01
                       0.0000000000E+00  0.0000000000E+00  7.5518800000E-01
             xred2     0.0000000000E+00  0.0000000000E+00  0.0000000000E+00
                       5.0000000000E-01  3.2204405124E-01  1.7231331137E-01
                       3.0999447056E-01  0.0000000000E+00  1.0683234745E-01
                       6.9000552944E-01  0.0000000000E+00  2.3779427528E-01
                       1.9000552944E-01  3.2204405124E-01  2.7914565882E-01
                       8.0999447056E-01  3.2204405124E-01  6.5480963913E-02
                       1.9000552944E-01  0.0000000000E+00  5.5062924292E-01
                       4.2348631463E-01  2.9945396738E-01  6.5382905236E-01
                       4.2348631463E-01 -2.9945396738E-01  6.5382905236E-01
                       0.0000000000E+00  0.0000000000E+00  7.5702489182E-01
             xred3     0.0000000000E+00  0.0000000000E+00  0.0000000000E+00
                       5.0000000000E-01  3.2204405124E-01  1.7103002601E-01
                       3.0999447056E-01  0.0000000000E+00  1.0603672472E-01
                       6.9000552944E-01  0.0000000000E+00  2.3602332729E-01
                       1.9000552944E-01  3.2204405124E-01  2.7706675073E-01
                       8.0999447056E-01  3.2204405124E-01  6.4993301285E-02
                       1.9000552944E-01  0.0000000000E+00  5.5397588462E-01
                       4.2348631463E-01  2.9945396738E-01  6.5640712428E-01
                       4.2348631463E-01 -2.9945396738E-01  6.5640712428E-01
                       0.0000000000E+00  0.0000000000E+00  7.5883442352E-01
             xred4     0.0000000000E+00  0.0000000000E+00  0.0000000000E+00
                       5.0000000000E-01  3.2204405124E-01  1.6976571362E-01
                       3.0999447056E-01  0.0000000000E+00  1.0525286502E-01
                       6.9000552944E-01  0.0000000000E+00  2.3427856221E-01
                       1.9000552944E-01  3.2204405124E-01  2.7501857864E-01
                       8.0999447056E-01  3.2204405124E-01  6.4512848594E-02
                       1.9000552944E-01  0.0000000000E+00  5.5727304729E-01
                       4.2348631463E-01  2.9945396738E-01  6.5894708022E-01
                       4.2348631463E-01 -2.9945396738E-01  6.5894708022E-01
                       0.0000000000E+00  0.0000000000E+00  7.6061720186E-01
             xred5     0.0000000000E+00  0.0000000000E+00  0.0000000000E+00
                       5.0000000000E-01  3.2204405124E-01  1.6851995651E-01
                       3.0999447056E-01  0.0000000000E+00  1.0448050940E-01
                       6.9000552944E-01  0.0000000000E+00  2.3255940363E-01
                       1.9000552944E-01  3.2204405124E-01  2.7300046591E-01
                       8.0999447056E-01  3.2204405124E-01  6.4039447119E-02
                       1.9000552944E-01  0.0000000000E+00  5.6052182016E-01
                       4.2348631463E-01  2.9945396738E-01  6.6144975928E-01
                       4.2348631463E-01 -2.9945396738E-01  6.6144975928E-01
                       0.0000000000E+00  0.0000000000E+00  7.6237381581E-01
            znucl       22.00000    8.00000   46.00000

================================================================================

 chkinp: Checking input parameters for consistency, jdtset=   1.

 chkinp: Checking input parameters for consistency, jdtset=   2.

 chkinp: Checking input parameters for consistency, jdtset=   3.

 chkinp: Checking input parameters for consistency, jdtset=   4.

 chkinp: Checking input parameters for consistency, jdtset=   5.

================================================================================
== DATASET  1 ==================================================================
-   nproc =    1

 Exchange-correlation functional for the present dataset will be:
  GGA: Perdew-Burke-Ernzerhof functional - ixc=11
 Citation for XC functional:
  J.P.Perdew, K.Burke, M.Ernzerhof, PRL 77, 3865 (1996)

 Real(R)+Recip(G) space primitive vectors, cartesian coordinates (Bohr,Bohr^-1):
 R(1)=  8.6808000  0.0000000  0.0000000  G(1)=  0.1151968  0.0000000  0.0000000
 R(2)=  0.0000000  8.6808000  0.0000000  G(2)=  0.0000000  0.1151968  0.0000000
 R(3)=  0.0000000  0.0000000 25.0000000  G(3)=  0.0000000  0.0000000  0.0400000
 Unit cell volume ucvol=  1.8839072E+03 bohr^3
 Angles (23,13,12)=  9.00000000E+01  9.00000000E+01  9.00000000E+01 degrees

 getcut: wavevector=  0.0000  0.0000  0.0000  ngfft=  64  64 180
         ecut(hartree)=     60.000   => boxcut(ratio)=   2.06487

--- Pseudopotential description ------------------------------------------------
- pspini: atom type   1  psp file is ../../../Psps_for_tests/Ti.psp8
- pspatm: opening atomic psp file    ../../../Psps_for_tests/Ti.psp8
- Ti    ONCVPSP-3.2.3.1  r_core=   1.35825   1.31050   1.66360
- 22.00000  12.00000    170504                znucl, zion, pspdat
    8   11    2    4       600   0.00000      pspcod,pspxc,lmax,lloc,mmax,r2well
    5.99000000000000    2.50000000000000    0.00000000000000   rchrg,fchrg,qchrg
     nproj     2     2     2
     extension_switch     1
  pspatm : epsatm=   14.68144390
         --- l  ekb(1:nproj) -->
             0   11.362348    1.263639
             1    1.975402   -0.084666
             2   -5.186090   -1.477451
 pspatm: atomic psp has been read  and splines computed

- pspini: atom type   2  psp file is ../../../Psps_for_tests/O.psp8
- pspatm: opening atomic psp file    ../../../Psps_for_tests/O.psp8
- O     ONCVPSP-3.2.3.1  r_core=   1.35509   1.45563   1.26150
-  8.00000   6.00000    170504                znucl, zion, pspdat
    8   11    2    4       600   0.00000      pspcod,pspxc,lmax,lloc,mmax,r2well
    5.99000000000000    4.00000000000000    0.00000000000000   rchrg,fchrg,qchrg
     nproj     2     2     1
     extension_switch     1
  pspatm : epsatm=    6.19546011
         --- l  ekb(1:nproj) -->
             0    6.056735    0.824024
             1   -4.717130   -1.149271
             2   -1.331955
 pspatm: atomic psp has been read  and splines computed

- pspini: atom type   3  psp file is ../../../Psps_for_tests/Pd.psp8
- pspatm: opening atomic psp file    ../../../Psps_for_tests/Pd.psp8
- Pd    ONCVPSP-3.2.3.1  r_core=   1.41052   1.46191   1.55175
- 46.00000  18.00000    170510                znucl, zion, pspdat
    8   11    2    4       600   0.00000      pspcod,pspxc,lmax,lloc,mmax,r2well
    5.99000000000000    7.00000000000000    0.00000000000000   rchrg,fchrg,qchrg
     nproj     2     2     2
     extension_switch     1
  pspatm : epsatm=   26.09224486
         --- l  ekb(1:nproj) -->
             0    7.845850   -2.282160
             1    3.261104   -0.686948
             2   -1.134855   -0.401224
 pspatm: atomic psp has been read  and splines computed

   1.90216449E+04                                ecore*ucvol(ha*bohr**3)
--------------------------------------------------------------------------------

_setup2: Arith. and geom. avg. npw (full set) are   41854.000   41853.989

================================================================================

     iter   Etot(hartree)      deltaE(h)  residm     vres2
 ETOT  1  -679.56637215913    -6.796E+02 1.566E-01 5.518E+06
 ETOT  2  -522.56747156116     1.570E+02 1.909E-01 2.898E+07
 ETOT  3  -666.39581047342    -1.438E+02 2.530E-01 7.605E+06
 ETOT  4  -719.37227977370    -5.298E+01 2.022E-01 5.326E+05
 ETOT  5  -723.56042009220    -4.188E+00 3.716E-02 1.523E+05
 ETOT  6  -724.01478396041    -4.544E-01 4.503E-02 1.242E+05
 ETOT  7  -723.17428081346     8.405E-01 2.649E-03 2.574E+05
 ETOT  8  -722.16816594951     1.006E+00 1.432E-03 4.306E+05
 ETOT  9  -719.58463771728     2.584E+00 4.948E-04 8.329E+05
 ETOT 10  -721.99170243520    -2.407E+00 2.571E-02 8.959E+04
 ETOT 11  -716.18685345575     5.805E+00 2.163E-02 1.298E+06
 ETOT 12  -713.34152489593     2.845E+00 4.516E-02 1.586E+06
 ETOT 13  -720.63123983300    -7.290E+00 1.162E-02 5.910E+05
 ETOT 14  -724.63191154242    -4.001E+00 1.574E-02 1.507E+05
 ETOT 15  -726.04762553751    -1.416E+00 8.204E-03 9.484E+03
 ETOT 16  -725.49291349014     5.547E-01 1.270E-02 6.704E+04
 ETOT 17  -725.78131711713    -2.884E-01 8.537E-04 3.230E+04
 ETOT 18  -725.75578545671     2.553E-02 3.675E-04 4.229E+04
 ETOT 19  -725.86285132939    -1.071E-01 4.359E-04 3.479E+04
 ETOT 20  -725.40314250289     4.597E-01 1.558E-03 8.532E+04
 ETOT 21  -725.42807222272    -2.493E-02 1.612E-03 7.997E+04
 ETOT 22  -725.85045427799    -4.224E-01 2.226E-03 2.471E+04
 ETOT 23  -726.05672073729    -2.063E-01 3.951E-04 1.309E+04
 ETOT 24  -726.05530226956     1.418E-03 8.256E-04 1.381E+04
 ETOT 25  -726.03394309446     2.136E-02 4.833E-04 2.564E+04
 ETOT 26  -726.10740431495    -7.346E-02 1.897E-04 1.898E+04
 ETOT 27  -726.15683541035    -4.943E-02 1.027E-04 1.388E+04
 ETOT 28  -726.16055249031    -3.717E-03 1.436E-04 1.302E+04
 ETOT 29  -726.13448891113     2.606E-02 6.059E-04 6.505E+03
 ETOT 30  -726.20031943934    -6.583E-02 8.609E-04 3.643E+03
 ETOT 31  -726.26769276089    -6.737E-02 2.076E-04 1.526E+02
 ETOT 32  -726.26899558059    -1.303E-03 2.638E-04 1.003E+02
 ETOT 33  -726.14237458518     1.266E-01 1.260E-04 1.161E+04
 ETOT 34  -726.26600864852    -1.236E-01 1.197E-04 6.213E+02
 ETOT 35  -726.26907848581    -3.070E-03 1.113E-04 2.464E+02
 ETOT 36  -726.27092669552    -1.848E-03 8.113E-05 2.999E+01

 At SCF step   36, etot is converged : 
  for the second time, diff in etot=  1.848E-03 < toldfe=  1.000E-02

 Cartesian components of stress tensor (hartree/bohr^3)
  sigma(1 1)=  2.57820407E-04  sigma(3 2)=  1.80523252E-05
  sigma(2 2)= -8.41603866E-04  sigma(3 1)= -1.41064984E-04
  sigma(3 3)=  2.87454116E-04  sigma(2 1)= -8.76702998E-05

 Integrated electronic density in atomic spheres:
 ------------------------------------------------
 Atom  Sphere_radius  Integrated_density
    1        2.00000          9.40899290
    2        2.00000          9.40483761
    3        2.00000          6.02145842
    4        2.00000          5.80541408
    5        2.00000          5.75701059
    6        2.00000          6.07892955
    7        2.00000         15.36030839
    8        2.00000         15.54465227
    9        2.00000         15.54750093
   10        2.00000         15.24258510
================================================================================

 ----iterations are completed or convergence reached----

 Mean square residual over all n,k,spin=   9.6190E-07; max=  8.1134E-05
 reduced coordinates (array xred) for   10 atoms
       0.000000000000      0.000000000000      0.000000000000
       0.500000000000      0.322044051240      0.173616000000
       0.309994470556      0.000000000000      0.107640000000
       0.690005529444      0.000000000000      0.239592000000
       0.190005529444      0.322044051240      0.281256000000
       0.809994470556      0.322044051240      0.065976000000
       0.190005529444      0.000000000000      0.547232000000
       0.423486314625      0.299453967376      0.651212000000
       0.423486314625     -0.299453967376      0.651212000000
       0.000000000000      0.000000000000      0.755188000000
 rms dE/dt=  1.3596E+00; max dE/dt=  3.3343E+00; dE/dt below (all hartree)
    1      -0.095486230082     -0.487061013863     -2.316423151308
    2       0.111103713365      0.847260390241     -2.284102073695
    3       0.400721877457      0.010692783769      1.944328704845
    4       0.232489077668     -0.518390781871      0.737106216300
    5      -0.422892678151     -0.084411213151      1.163254853393
    6      -0.232709485628      0.249381543766      1.335722824326
    7       0.715834111418     -0.007639687704      2.649227467540
    8      -0.379242809955      3.334304722530     -1.668047514574
    9      -0.372222907584     -3.328334586742     -1.685130116793
   10       0.043221589979     -0.016069622590      0.140442172709

 cartesian coordinates (angstrom) at end:
    1      0.00000000000000     0.00000000000000     0.00000000000000
    2      2.29684075616404     1.47936780433420     2.29684075616404
    3      1.42401586831569     0.00000000000000     1.42401586831569
    4      3.16966564401238     0.00000000000000     3.16966564401238
    5      0.87282488784835     1.47936780433420     3.72085662447973
    6      3.72085662447973     1.47936780433420     0.87282488784835
    7      0.87282488784835     0.00000000000000     7.23956755527807
    8      1.94536125421856     1.37559615372970     8.61516370900778
    9      1.94536125421856    -1.37559615372970     8.61516370900778
   10      0.00000000000000     0.00000000000000     9.99070694501662

 cartesian forces (hartree/bohr) at end:
    1      0.01100910698674     0.05610476768288     0.09272244358329
    2     -0.01278938433285    -0.09760472961047     0.09142960047876
    3     -0.04615245733209    -0.00123485512054    -0.07770763066283
    4     -0.02677258453359     0.05971385532546    -0.02941873112103
    5      0.04872526771727     0.00972081681294    -0.04646467660474
    6      0.02681678088152    -0.02873102598007    -0.05336339544206
    7     -0.08245236447898     0.00087698612365    -0.10590358117064
    8      0.04369694449867    -0.38410416886594     0.06678741811394
    9      0.04288827451764     0.38341026635571     0.06747072220270
   10     -0.00496958392433     0.00184808727639    -0.00555216937738
 frms,max,avg= 1.1219458E-01 3.8410417E-01  -9.403E-06  3.081E-06 -6.552E-05 h/b

 cartesian forces (eV/Angstrom) at end:
    1      0.56611099516201     2.88502290917429     4.76797935327725
    2     -0.65765652935366    -5.01903657388967     4.70149869345855
    3     -2.37325457740694    -0.06349879804191    -3.99588669446210
    4     -1.37670153370555     3.07060964199700    -1.51277185074066
    5      2.50555379561553     0.49986445643522    -2.38930953657532
    6      1.37897420110160    -1.47740863352470    -2.74405589257343
    7     -4.23987069658623     0.04509643586918    -5.44578064323941
    8      2.24698704131790   -19.75142884382145     3.43434683470060
    9      2.20540356245146    19.71574694509091     3.46948374073202
   10     -0.25554625859611     0.09503246071112    -0.28550400457750
 frms,max,avg= 5.7692768E+00 1.9751429E+01  -4.835E-04  1.584E-04 -3.369E-03 e/A
 length scales=  8.680800000000  8.680800000000 25.000000000000 bohr
              =  4.593681512328  4.593681512328 13.229430214750 angstroms
 prteigrs : about to open file manualGeomOpt2_o_DS1_EIG
 Fermi (or HOMO) energy (hartree) =   0.04929   Average Vxc (hartree)=  -0.28194
 Eigenvalues (hartree) for nkpt=   2  k points:
 kpt#   1, nband= 62, wtk=  0.50000, kpt=  0.1250  0.5000  0.5000 (reduced coord)
  -3.09675   -3.06524   -3.03961   -3.01191   -2.10329   -2.05068   -1.92028   -1.82396
  -1.81994   -1.81352   -1.79490   -1.78956   -1.78021   -1.77832   -1.76631   -1.76052
  -1.75149   -1.74675   -1.23571   -1.23100   -1.22286   -1.18348   -1.17850   -1.17145
  -0.60007   -0.58773   -0.52556   -0.50694   -0.19198   -0.17208   -0.16466   -0.11519
  -0.10966   -0.10811   -0.10057   -0.09256   -0.09113   -0.09035   -0.08192   -0.07517
  -0.07074   -0.03921   -0.03883   -0.03489   -0.03171   -0.02120   -0.02089   -0.00571
  -0.00527   -0.00173    0.00515    0.00680    0.01390    0.01436    0.01918    0.02499
   0.03076    0.03346    0.03745    0.04384    0.04550    0.05467
 prteigrs : prtvol=0 or 1, do not print more k-points.


--------------------------------------------------------------------------------
 Components of total free energy (in Hartree) :

    Kinetic energy  =  2.72210103393852E+02
    Hartree energy  =  3.94093369567084E+02
    XC energy       = -1.18240812487322E+02
    Ewald energy    = -2.33618489771898E+02
    PspCore energy  =  1.00969117583759E+01
    Loc. psp. energy= -1.04752608058818E+03
    NL   psp  energy= -3.28592856743192E+00
    >>>>>>>>> Etotal= -7.26270926695519E+02

 Other information on the energy :
    Total energy(eV)= -1.97628369726697E+04 ; Band energy (Ha)=  -9.7549840113E+01
--------------------------------------------------------------------------------

 Cartesian components of stress tensor (hartree/bohr^3)
  sigma(1 1)=  2.57820407E-04  sigma(3 2)=  1.80523252E-05
  sigma(2 2)= -8.41603866E-04  sigma(3 1)= -1.41064984E-04
  sigma(3 3)=  2.87454116E-04  sigma(2 1)= -8.76702998E-05

-Cartesian components of stress tensor (GPa)         [Pressure=  2.9061E+00 GPa]
- sigma(1 1)=  7.58533699E+00  sigma(3 2)=  5.31117653E-01
- sigma(2 2)= -2.47608364E+01  sigma(3 1)= -4.15027441E+00
- sigma(3 3)=  8.45719064E+00  sigma(2 1)= -2.57934884E+00

================================================================================
== DATASET  2 ==================================================================
-   nproc =    1

 Exchange-correlation functional for the present dataset will be:
  GGA: Perdew-Burke-Ernzerhof functional - ixc=11
 Citation for XC functional:
  J.P.Perdew, K.Burke, M.Ernzerhof, PRL 77, 3865 (1996)

 Real(R)+Recip(G) space primitive vectors, cartesian coordinates (Bohr,Bohr^-1):
 R(1)=  8.6808000  0.0000000  0.0000000  G(1)=  0.1151968  0.0000000  0.0000000
 R(2)=  0.0000000  8.6808000  0.0000000  G(2)=  0.0000000  0.1151968  0.0000000
 R(3)=  0.0000000  0.0000000 25.1890000  G(3)=  0.0000000  0.0000000  0.0396999
 Unit cell volume ucvol=  1.8981496E+03 bohr^3
 Angles (23,13,12)=  9.00000000E+01  9.00000000E+01  9.00000000E+01 degrees

 getcut: wavevector=  0.0000  0.0000  0.0000  ngfft=  64  64 180
         ecut(hartree)=     60.000   => boxcut(ratio)=   2.04937

--- Pseudopotential description ------------------------------------------------
- pspini: atom type   1  psp file is ../../../Psps_for_tests/Ti.psp8
- pspatm: opening atomic psp file    ../../../Psps_for_tests/Ti.psp8
- Ti    ONCVPSP-3.2.3.1  r_core=   1.35825   1.31050   1.66360
- 22.00000  12.00000    170504                znucl, zion, pspdat
    8   11    2    4       600   0.00000      pspcod,pspxc,lmax,lloc,mmax,r2well
    5.99000000000000    2.50000000000000    0.00000000000000   rchrg,fchrg,qchrg
     nproj     2     2     2
     extension_switch     1
  pspatm : epsatm=   14.68144390
         --- l  ekb(1:nproj) -->
             0   11.362348    1.263639
             1    1.975402   -0.084666
             2   -5.186090   -1.477451
 pspatm: atomic psp has been read  and splines computed

- pspini: atom type   2  psp file is ../../../Psps_for_tests/O.psp8
- pspatm: opening atomic psp file    ../../../Psps_for_tests/O.psp8
- O     ONCVPSP-3.2.3.1  r_core=   1.35509   1.45563   1.26150
-  8.00000   6.00000    170504                znucl, zion, pspdat
    8   11    2    4       600   0.00000      pspcod,pspxc,lmax,lloc,mmax,r2well
    5.99000000000000    4.00000000000000    0.00000000000000   rchrg,fchrg,qchrg
     nproj     2     2     1
     extension_switch     1
  pspatm : epsatm=    6.19546011
         --- l  ekb(1:nproj) -->
             0    6.056735    0.824024
             1   -4.717130   -1.149271
             2   -1.331955
 pspatm: atomic psp has been read  and splines computed

- pspini: atom type   3  psp file is ../../../Psps_for_tests/Pd.psp8
- pspatm: opening atomic psp file    ../../../Psps_for_tests/Pd.psp8
- Pd    ONCVPSP-3.2.3.1  r_core=   1.41052   1.46191   1.55175
- 46.00000  18.00000    170510                znucl, zion, pspdat
    8   11    2    4       600   0.00000      pspcod,pspxc,lmax,lloc,mmax,r2well
    5.99000000000000    7.00000000000000    0.00000000000000   rchrg,fchrg,qchrg
     nproj     2     2     2
     extension_switch     1
  pspatm : epsatm=   26.09224486
         --- l  ekb(1:nproj) -->
             0    7.845850   -2.282160
             1    3.261104   -0.686948
             2   -1.134855   -0.401224
 pspatm: atomic psp has been read  and splines computed

--------------------------------------------------------------------------------

_setup2: Arith. and geom. avg. npw (full set) are   42166.000   42165.954

================================================================================

     iter   Etot(hartree)      deltaE(h)  residm     vres2
 ETOT  1  -677.53233157882    -6.775E+02 1.419E-01 5.774E+06
 ETOT  2  -515.30080740510     1.622E+02 1.452E-01 3.022E+07
 ETOT  3  -661.39455717257    -1.461E+02 2.353E-01 8.364E+06
 ETOT  4  -719.19831039007    -5.780E+01 2.012E-01 5.286E+05
 ETOT  5  -722.74555741076    -3.547E+00 7.332E-02 2.419E+05
 ETOT  6  -723.13619434515    -3.906E-01 8.754E-03 2.587E+05
 ETOT  7  -722.03056676480     1.106E+00 4.335E-03 3.806E+05
 ETOT  8  -721.54549597829     4.851E-01 9.312E-03 5.503E+05
 ETOT  9  -719.73100512533     1.814E+00 3.174E-03 8.648E+05
 ETOT 10  -705.36433876848     1.437E+01 6.282E-02 2.369E+06
 ETOT 11  -706.23078214577    -8.664E-01 7.873E-03 2.536E+06
 ETOT 12  -710.10275240163    -3.872E+00 5.089E-03 1.866E+06
 ETOT 13  -721.97030230254    -1.187E+01 7.226E-02 1.237E+05
 ETOT 14  -723.91895064761    -1.949E+00 2.686E-02 1.819E+05
 ETOT 15  -724.91321841001    -9.943E-01 5.597E-03 4.357E+04
 ETOT 16  -725.43442452707    -5.212E-01 3.005E-03 3.636E+04
 ETOT 17  -725.84658364394    -4.122E-01 9.216E-03 1.012E+04
 ETOT 18  -724.99734165982     8.492E-01 3.649E-03 1.196E+05
 ETOT 19  -725.46957698905    -4.722E-01 1.796E-03 8.282E+04
 ETOT 20  -725.90379032902    -4.342E-01 9.668E-04 3.724E+04
 ETOT 21  -725.17511467101     7.287E-01 1.629E-03 1.071E+05
 ETOT 22  -725.79189818963    -6.168E-01 6.413E-04 5.749E+04
 ETOT 23  -725.98701009101    -1.951E-01 3.229E-04 2.317E+04
 ETOT 24  -725.67345731513     3.136E-01 3.057E-04 6.885E+04
 ETOT 25  -726.21197953633    -5.385E-01 3.600E-04 1.776E+03
 ETOT 26  -726.11593825379     9.604E-02 1.489E-04 1.645E+04
 ETOT 27  -726.23781742489    -1.219E-01 1.818E-04 2.331E+03
 ETOT 28  -726.19066682880     4.715E-02 1.151E-04 8.810E+03
 ETOT 29  -726.23070010061    -4.003E-02 1.323E-04 4.186E+03
 ETOT 30  -726.26480673775    -3.411E-02 1.078E-04 1.195E+02
 ETOT 31  -726.26861415127    -3.807E-03 7.887E-05 6.762E+01
 ETOT 32  -726.26672181535     1.892E-03 6.243E-05 3.529E+02

 At SCF step   32, etot is converged : 
  for the second time, diff in etot=  1.892E-03 < toldfe=  1.000E-02

 Cartesian components of stress tensor (hartree/bohr^3)
  sigma(1 1)=  2.87578115E-04  sigma(3 2)=  1.51216555E-05
  sigma(2 2)= -8.00971227E-04  sigma(3 1)= -1.44781533E-04
  sigma(3 3)=  3.54194188E-04  sigma(2 1)= -8.89345998E-05

 Integrated electronic density in atomic spheres:
 ------------------------------------------------
 Atom  Sphere_radius  Integrated_density
    1        2.00000          9.41618093
    2        2.00000          9.40399910
    3        2.00000          6.02349694
    4        2.00000          5.83198637
    5        2.00000          5.76982932
    6        2.00000          6.08518652
    7        2.00000         15.33851602
    8        2.00000         15.53487458
    9        2.00000         15.53427982
   10        2.00000         15.22656730
================================================================================

 ----iterations are completed or convergence reached----

 Mean square residual over all n,k,spin=   1.6041E-06; max=  6.2427E-05
 reduced coordinates (array xred) for   10 atoms
       0.000000000000      0.000000000000      0.000000000000
       0.500000000000      0.322044051240      0.172313311366
       0.309994470556      0.000000000000      0.106832347453
       0.690005529444      0.000000000000      0.237794275279
       0.190005529444      0.322044051240      0.279145658819
       0.809994470556      0.322044051240      0.065480963913
       0.190005529444      0.000000000000      0.550629242923
       0.423486314625      0.299453967376      0.653829052364
       0.423486314625     -0.299453967376      0.653829052364
       0.000000000000      0.000000000000      0.757024891818
 rms dE/dt=  1.3473E+00; max dE/dt=  3.3144E+00; dE/dt below (all hartree)
    1      -0.098935586360     -0.485146192158     -2.216642134333
    2       0.132883724443      0.807963090472     -2.377438080614
    3       0.402927686466      0.012817502160      1.872854460319
    4       0.209804412458     -0.483458619694      0.814061316373
    5      -0.405609987919     -0.085229308247      1.262931517918
    6      -0.244200336304      0.252480140710      1.235872916300
    7       0.656652254493      0.000750293007      2.605212390896
    8      -0.338706009188      3.314408486506     -1.653502124610
    9      -0.340112997790     -3.315621320252     -1.661117805760
   10       0.029357921240     -0.015129258925      0.149324111075

 cartesian coordinates (angstrom) at end:
    1      0.00000000000000     0.00000000000000     0.00000000000000
    2      2.29684075616404     1.47936780433420     2.29684075616404
    3      1.42401586831569     0.00000000000000     1.42401586831569
    4      3.16966564401238     0.00000000000000     3.16966564401238
    5      0.87282488784835     1.47936780433420     3.72085662447972
    6      3.72085662447973     1.47936780433420     0.87282488784835
    7      0.87282488784835     0.00000000000000     7.33958204770158
    8      1.94536125421856     1.37559615372970     8.71517820143128
    9      1.94536125421856    -1.37559615372970     8.71517820143128
   10      0.00000000000000     0.00000000000000    10.09072143744013

 cartesian forces (hartree/bohr) at end:
    1      0.01144384094943     0.05593144335958     0.08812568149152
    2     -0.01526099164696    -0.09303055122962     0.09450925949306
    3     -0.04636918006538    -0.00143235886115    -0.07422679755302
    4     -0.02412200538019     0.05573704048615    -0.03219284845039
    5      0.04677173717545     0.00986231563965    -0.05001293664542
    6      0.02817786891275    -0.02904071737076    -0.04893871370613
    7     -0.07559742723475    -0.00004225551210    -0.10330131145100
    8      0.03906461585820    -0.38176493009265     0.06576909688223
    9      0.03922669638099     0.38199299622273     0.06607143842614
   10     -0.00333515494955     0.00178701735817    -0.00580286848699
 frms,max,avg= 1.1104101E-01 3.8199300E-01  -4.678E-05 -4.418E-05 -1.253E-04 h/b

 cartesian forces (eV/Angstrom) at end:
    1      0.58846591246351     2.87611021486855     4.53160436251459
    2     -0.78475167684592    -4.78382288413720     4.85986111390253
    3     -2.38439890749372    -0.07365484787211    -3.81689507432770
    4     -1.24040328498321     2.86611361802641    -1.65542268735351
    5      2.40509922464635     0.50714061804392    -2.57176838860968
    6      1.44896415585386    -1.49333360378676    -2.51652962874265
    7     -3.88737568043478    -0.00217286561318    -5.31196656527301
    8      2.00878314524028   -19.63114035979946     3.38198265597332
    9      2.01711766012543    19.64286799075234     3.39752968195021
   10     -0.17150054857180     0.09189211951749    -0.29839547003410
 frms,max,avg= 5.7099578E+00 1.9642868E+01  -2.406E-03 -2.272E-03 -6.442E-03 e/A
 length scales=  8.680800000000  8.680800000000 25.189000000000 bohr
              =  4.593681512328  4.593681512328 13.329444707174 angstroms
 prteigrs : about to open file manualGeomOpt2_o_DS2_EIG
 Fermi (or HOMO) energy (hartree) =   0.04789   Average Vxc (hartree)=  -0.28048
 Eigenvalues (hartree) for nkpt=   2  k points:
 kpt#   1, nband= 62, wtk=  0.50000, kpt=  0.1250  0.5000  0.5000 (reduced coord)
  -3.09838   -3.06684   -3.04006   -3.01358   -2.10652   -2.05261   -1.92193   -1.82567
  -1.82114   -1.81496   -1.79641   -1.79092   -1.78150   -1.77915   -1.76671   -1.76225
  -1.75311   -1.74856   -1.23934   -1.23439   -1.22545   -1.18545   -1.18040   -1.17334
  -0.60359   -0.59096   -0.52739   -0.50791   -0.19361   -0.17382   -0.16621   -0.11866
  -0.11231   -0.10971   -0.10363   -0.09416   -0.09274   -0.09161   -0.08511   -0.07804
  -0.07217   -0.04098   -0.04048   -0.03767   -0.03344   -0.02303   -0.02272   -0.00743
  -0.00699   -0.00310    0.00345    0.00558    0.01221    0.01266    0.01765    0.02341
   0.02903    0.03192    0.03544    0.04253    0.04397    0.05315
 prteigrs : prtvol=0 or 1, do not print more k-points.


--------------------------------------------------------------------------------
 Components of total free energy (in Hartree) :

    Kinetic energy  =  2.72127931891962E+02
    Hartree energy  =  3.97830604236317E+02
    XC energy       = -1.18225432144643E+02
    Ewald energy    = -2.28716560019893E+02
    PspCore energy  =  1.00211518503870E+01
    Loc. psp. energy= -1.05598828828344E+03
    NL   psp  energy= -3.31612934603284E+00
    >>>>>>>>> Etotal= -7.26266721815347E+02

 Other information on the energy :
    Total energy(eV)= -1.97627225520612E+04 ; Band energy (Ha)=  -9.7773325278E+01
--------------------------------------------------------------------------------

 Cartesian components of stress tensor (hartree/bohr^3)
  sigma(1 1)=  2.87578115E-04  sigma(3 2)=  1.51216555E-05
  sigma(2 2)= -8.00971227E-04  sigma(3 1)= -1.44781533E-04
  sigma(3 3)=  3.54194188E-04  sigma(2 1)= -8.89345998E-05

-Cartesian components of stress tensor (GPa)         [Pressure=  1.5613E+00 GPa]
- sigma(1 1)=  8.46083883E+00  sigma(3 2)=  4.44894390E-01
- sigma(2 2)= -2.35653831E+01  sigma(3 1)= -4.25961905E+00
- sigma(3 3)=  1.04207510E+01  sigma(2 1)= -2.61654582E+00

================================================================================
== DATASET  3 ==================================================================
-   nproc =    1

 Exchange-correlation functional for the present dataset will be:
  GGA: Perdew-Burke-Ernzerhof functional - ixc=11
 Citation for XC functional:
  J.P.Perdew, K.Burke, M.Ernzerhof, PRL 77, 3865 (1996)

 Real(R)+Recip(G) space primitive vectors, cartesian coordinates (Bohr,Bohr^-1):
 R(1)=  8.6808000  0.0000000  0.0000000  G(1)=  0.1151968  0.0000000  0.0000000
 R(2)=  0.0000000  8.6808000  0.0000000  G(2)=  0.0000000  0.1151968  0.0000000
 R(3)=  0.0000000  0.0000000 25.3780000  G(3)=  0.0000000  0.0000000  0.0394042
 Unit cell volume ucvol=  1.9123919E+03 bohr^3
 Angles (23,13,12)=  9.00000000E+01  9.00000000E+01  9.00000000E+01 degrees

 getcut: wavevector=  0.0000  0.0000  0.0000  ngfft=  64  64 180
         ecut(hartree)=     60.000   => boxcut(ratio)=   2.03411

--- Pseudopotential description ------------------------------------------------
- pspini: atom type   1  psp file is ../../../Psps_for_tests/Ti.psp8
- pspatm: opening atomic psp file    ../../../Psps_for_tests/Ti.psp8
- Ti    ONCVPSP-3.2.3.1  r_core=   1.35825   1.31050   1.66360
- 22.00000  12.00000    170504                znucl, zion, pspdat
    8   11    2    4       600   0.00000      pspcod,pspxc,lmax,lloc,mmax,r2well
    5.99000000000000    2.50000000000000    0.00000000000000   rchrg,fchrg,qchrg
     nproj     2     2     2
     extension_switch     1
  pspatm : epsatm=   14.68144390
         --- l  ekb(1:nproj) -->
             0   11.362348    1.263639
             1    1.975402   -0.084666
             2   -5.186090   -1.477451
 pspatm: atomic psp has been read  and splines computed

- pspini: atom type   2  psp file is ../../../Psps_for_tests/O.psp8
- pspatm: opening atomic psp file    ../../../Psps_for_tests/O.psp8
- O     ONCVPSP-3.2.3.1  r_core=   1.35509   1.45563   1.26150
-  8.00000   6.00000    170504                znucl, zion, pspdat
    8   11    2    4       600   0.00000      pspcod,pspxc,lmax,lloc,mmax,r2well
    5.99000000000000    4.00000000000000    0.00000000000000   rchrg,fchrg,qchrg
     nproj     2     2     1
     extension_switch     1
  pspatm : epsatm=    6.19546011
         --- l  ekb(1:nproj) -->
             0    6.056735    0.824024
             1   -4.717130   -1.149271
             2   -1.331955
 pspatm: atomic psp has been read  and splines computed

- pspini: atom type   3  psp file is ../../../Psps_for_tests/Pd.psp8
- pspatm: opening atomic psp file    ../../../Psps_for_tests/Pd.psp8
- Pd    ONCVPSP-3.2.3.1  r_core=   1.41052   1.46191   1.55175
- 46.00000  18.00000    170510                znucl, zion, pspdat
    8   11    2    4       600   0.00000      pspcod,pspxc,lmax,lloc,mmax,r2well
    5.99000000000000    7.00000000000000    0.00000000000000   rchrg,fchrg,qchrg
     nproj     2     2     2
     extension_switch     1
  pspatm : epsatm=   26.09224486
         --- l  ekb(1:nproj) -->
             0    7.845850   -2.282160
             1    3.261104   -0.686948
             2   -1.134855   -0.401224
 pspatm: atomic psp has been read  and splines computed

--------------------------------------------------------------------------------

_setup2: Arith. and geom. avg. npw (full set) are   42452.000   42451.977

================================================================================

     iter   Etot(hartree)      deltaE(h)  residm     vres2
 ETOT  1  -675.71963863269    -6.757E+02 1.677E-01 6.050E+06
 ETOT  2  -514.35973463302     1.614E+02 1.935E-01 3.061E+07
 ETOT  3  -651.53743594280    -1.372E+02 2.702E-01 9.860E+06
 ETOT  4  -714.93538958469    -6.340E+01 2.303E-01 1.075E+06
 ETOT  5  -722.40547122381    -7.470E+00 5.966E-02 2.820E+05
 ETOT  6  -723.11638705260    -7.109E-01 2.366E-02 2.404E+05
 ETOT  7  -723.00444963962     1.119E-01 2.640E-02 3.036E+05
 ETOT  8  -720.21765271203     2.787E+00 1.281E-03 7.277E+05
 ETOT  9  -720.19119118863     2.646E-02 8.674E-04 8.096E+05
 ETOT 10  -712.74396007036     7.447E+00 2.440E-02 1.453E+06
 ETOT 11  -713.06991154932    -3.260E-01 9.183E-03 1.694E+06
 ETOT 12  -697.01502446035     1.605E+01 2.491E-02 3.676E+06
 ETOT 13  -722.37360348325    -2.536E+01 8.452E-02 8.276E+04
 ETOT 14  -725.04693599529    -2.673E+00 2.483E-02 3.572E+04
 ETOT 15  -724.74485281528     3.021E-01 1.748E-02 3.347E+04
 ETOT 16  -725.42951029685    -6.847E-01 1.427E-02 6.304E+04
 ETOT 17  -725.35937414501     7.014E-02 5.691E-03 8.312E+04
 ETOT 18  -725.67719188188    -3.178E-01 6.243E-03 6.543E+04
 ETOT 19  -725.85134052841    -1.741E-01 1.490E-03 4.987E+04
 ETOT 20  -725.90871686232    -5.738E-02 9.937E-04 4.215E+04
 ETOT 21  -722.26907931528     3.640E+00 4.688E-03 3.712E+05
 ETOT 22  -725.53273820723    -3.264E+00 1.678E-03 7.478E+04
 ETOT 23  -726.00389184098    -4.712E-01 5.857E-03 2.666E+04
 ETOT 24  -726.03407957004    -3.019E-02 4.221E-04 2.752E+04
 ETOT 25  -726.23015140254    -1.961E-01 3.615E-04 2.707E+03
 ETOT 26  -726.23589332017    -5.742E-03 1.768E-04 3.489E+03
 ETOT 27  -726.26189289926    -2.600E-02 2.228E-04 5.038E+02
 ETOT 28  -726.25158156223     1.031E-02 1.114E-04 1.743E+03
 ETOT 29  -726.26378648094    -1.220E-02 2.203E-04 2.995E+02
 ETOT 30  -726.14109301816     1.227E-01 1.412E-04 1.426E+04
 ETOT 31  -726.26623335158    -1.251E-01 1.714E-04 1.980E+02
 ETOT 32  -726.23486445528     3.137E-02 1.460E-04 3.646E+03
 ETOT 33  -726.26075427963    -2.589E-02 1.765E-04 8.338E+02
 ETOT 34  -726.26857420268    -7.820E-03 1.380E-04 1.180E+01
 ETOT 35  -726.26875393317    -1.797E-04 1.744E-04 6.206E+00

 At SCF step   35, etot is converged : 
  for the second time, diff in etot=  1.797E-04 < toldfe=  1.000E-02

 Cartesian components of stress tensor (hartree/bohr^3)
  sigma(1 1)=  2.49248796E-04  sigma(3 2)=  2.13951244E-05
  sigma(2 2)= -8.22525513E-04  sigma(3 1)= -1.37216967E-04
  sigma(3 3)=  2.77155348E-04  sigma(2 1)= -8.36583540E-05

 Integrated electronic density in atomic spheres:
 ------------------------------------------------
 Atom  Sphere_radius  Integrated_density
    1        2.00000          9.40634546
    2        2.00000          9.40477849
    3        2.00000          6.03066865
    4        2.00000          5.79139706
    5        2.00000          5.74534056
    6        2.00000          6.07903104
    7        2.00000         15.36639571
    8        2.00000         15.55233583
    9        2.00000         15.54785615
   10        2.00000         15.24370600
================================================================================

 ----iterations are completed or convergence reached----

 Mean square residual over all n,k,spin=   1.9795E-06; max=  1.7441E-04
 reduced coordinates (array xred) for   10 atoms
       0.000000000000      0.000000000000      0.000000000000
       0.500000000000      0.322044051240      0.171030026007
       0.309994470556      0.000000000000      0.106036724722
       0.690005529444      0.000000000000      0.236023327291
       0.190005529444      0.322044051240      0.277066750729
       0.809994470556      0.322044051240      0.064993301285
       0.190005529444      0.000000000000      0.553975884624
       0.423486314625      0.299453967376      0.656407124281
       0.423486314625     -0.299453967376      0.656407124281
       0.000000000000      0.000000000000      0.758834423516
 rms dE/dt=  1.3764E+00; max dE/dt=  3.3500E+00; dE/dt below (all hartree)
    1      -0.082910527829     -0.485846450534     -2.375783738390
    2       0.109245569059      0.837435789815     -2.477629638337
    3       0.395256013271      0.021304625875      2.028036235934
    4       0.232526990966     -0.521178666762      0.770584431241
    5      -0.430818442240     -0.088250547385      1.226517930740
    6      -0.232226922906      0.244874066267      1.434216298589
    7       0.704856480072      0.004910830189      2.531271957878
    8      -0.380916430967      3.349965567358     -1.633300809456
    9      -0.368444618289     -3.353373263804     -1.641575930845
   10       0.053475647808     -0.013654237907      0.135710846360

 cartesian coordinates (angstrom) at end:
    1      0.00000000000000     0.00000000000000     0.00000000000000
    2      2.29684075616404     1.47936780433420     2.29684075616404
    3      1.42401586831569     0.00000000000000     1.42401586831569
    4      3.16966564401238     0.00000000000000     3.16966564401238
    5      0.87282488784835     1.47936780433420     3.72085662447973
    6      3.72085662447973     1.47936780433420     0.87282488784835
    7      0.87282488784835     0.00000000000000     7.43959654012509
    8      1.94536125421856     1.37559615372970     8.81519269385480
    9      1.94536125421856    -1.37559615372970     8.81519269385480
   10      0.00000000000000     0.00000000000000    10.19073592986364

 cartesian forces (hartree/bohr) at end:
    1      0.00955152793791     0.05592401873621     0.09360818412646
    2     -0.01258423108056    -0.09651380270293     0.09762134118954
    3     -0.04553170645298    -0.00249814009808    -0.07992085576337
    4     -0.02678585096667     0.05999417543005    -0.03037196283667
    5      0.04962939108543     0.01012226047090    -0.04833766145355
    6      0.02675229227725    -0.02825261438527    -0.05652185121829
    7     -0.08119667590287    -0.00060962801560    -0.09975046100979
    8      0.04388084126601    -0.38594908257842     0.06435123208398
    9      0.04244412890330     0.38625380553804     0.06467730669149
   10     -0.00615971706683     0.00152900760510    -0.00535527180978
 frms,max,avg= 1.1271105E-01 3.8625381E-01  -5.041E-07  4.392E-05  7.693E-06 h/b

 cartesian forces (eV/Angstrom) at end:
    1      0.49115927320575     2.87572842541648     4.81352595946001
    2     -0.64710712584994    -4.96293886151180     5.01989077555833
    3     -2.34133428647474    -0.12845951798661    -4.10969529544086
    4     -1.37738372106563     3.08502428012934    -1.56178899225924
    5      2.55204568458663     0.52050751758258    -2.48562228182899
    6      1.37565806401771    -1.45280772226479    -2.90647020508829
    7     -4.17530059927592    -0.03134833034200    -5.12937450949913
    8      2.25644339250852   -19.84629811332852     3.30907312271974
    9      2.18256467860460    19.86196759661431     3.32584055179260
   10     -0.31674536025698     0.07862472569100    -0.27537912541416
 frms,max,avg= 5.7958347E+00 1.9861968E+01  -2.592E-05  2.258E-03  3.956E-04 e/A
 length scales=  8.680800000000  8.680800000000 25.378000000000 bohr
              =  4.593681512328  4.593681512328 13.429459199597 angstroms
 prteigrs : about to open file manualGeomOpt2_o_DS3_EIG
 Fermi (or HOMO) energy (hartree) =   0.04594   Average Vxc (hartree)=  -0.27893
 Eigenvalues (hartree) for nkpt=   2  k points:
 kpt#   1, nband= 62, wtk=  0.50000, kpt=  0.1250  0.5000  0.5000 (reduced coord)
  -3.10039   -3.06886   -3.04281   -3.01631   -2.10794   -2.05456   -1.92400   -1.82785
  -1.82346   -1.81686   -1.79831   -1.79323   -1.78374   -1.78205   -1.76928   -1.76474
  -1.75579   -1.75140   -1.24055   -1.23592   -1.22699   -1.18741   -1.18244   -1.17520
  -0.60457   -0.59240   -0.52921   -0.50997   -0.19588   -0.17600   -0.16823   -0.11959
  -0.11408   -0.11205   -0.10500   -0.09642   -0.09499   -0.09393   -0.08626   -0.07964
  -0.07460   -0.04328   -0.04287   -0.03921   -0.03572   -0.02518   -0.02466   -0.00962
  -0.00900   -0.00563    0.00102    0.00392    0.00983    0.01030    0.01582    0.02098
   0.02675    0.03000    0.03297    0.04046    0.04184    0.05092
 prteigrs : prtvol=0 or 1, do not print more k-points.


--------------------------------------------------------------------------------
 Components of total free energy (in Hartree) :

    Kinetic energy  =  2.72201050763721E+02
    Hartree energy  =  4.03589970955038E+02
    XC energy       = -1.18239211921118E+02
    Ewald energy    = -2.23605344846525E+02
    PspCore energy  =  9.94652037037585E+00
    Loc. psp. energy= -1.06688815803001E+03
    NL   psp  energy= -3.27358122464880E+00
    >>>>>>>>> Etotal= -7.26268753933172E+02

 Other information on the energy :
    Total energy(eV)= -1.97627778487994E+04 ; Band energy (Ha)=  -9.8020706912E+01
--------------------------------------------------------------------------------

 Cartesian components of stress tensor (hartree/bohr^3)
  sigma(1 1)=  2.49248796E-04  sigma(3 2)=  2.13951244E-05
  sigma(2 2)= -8.22525513E-04  sigma(3 1)= -1.37216967E-04
  sigma(3 3)=  2.77155348E-04  sigma(2 1)= -8.36583540E-05

-Cartesian components of stress tensor (GPa)         [Pressure=  2.9041E+00 GPa]
- sigma(1 1)=  7.33315153E+00  sigma(3 2)=  6.29466185E-01
- sigma(2 2)= -2.41995320E+01  sigma(3 1)= -4.03706186E+00
- sigma(3 3)=  8.15419050E+00  sigma(2 1)= -2.46131334E+00

================================================================================
== DATASET  4 ==================================================================
-   nproc =    1

 Exchange-correlation functional for the present dataset will be:
  GGA: Perdew-Burke-Ernzerhof functional - ixc=11
 Citation for XC functional:
  J.P.Perdew, K.Burke, M.Ernzerhof, PRL 77, 3865 (1996)

 Real(R)+Recip(G) space primitive vectors, cartesian coordinates (Bohr,Bohr^-1):
 R(1)=  8.6808000  0.0000000  0.0000000  G(1)=  0.1151968  0.0000000  0.0000000
 R(2)=  0.0000000  8.6808000  0.0000000  G(2)=  0.0000000  0.1151968  0.0000000
 R(3)=  0.0000000  0.0000000 25.5670000  G(3)=  0.0000000  0.0000000  0.0391129
 Unit cell volume ucvol=  1.9266342E+03 bohr^3
 Angles (23,13,12)=  9.00000000E+01  9.00000000E+01  9.00000000E+01 degrees

 getcut: wavevector=  0.0000  0.0000  0.0000  ngfft=  64  64 180
         ecut(hartree)=     60.000   => boxcut(ratio)=   2.01907

--- Pseudopotential description ------------------------------------------------
- pspini: atom type   1  psp file is ../../../Psps_for_tests/Ti.psp8
- pspatm: opening atomic psp file    ../../../Psps_for_tests/Ti.psp8
- Ti    ONCVPSP-3.2.3.1  r_core=   1.35825   1.31050   1.66360
- 22.00000  12.00000    170504                znucl, zion, pspdat
    8   11    2    4       600   0.00000      pspcod,pspxc,lmax,lloc,mmax,r2well
    5.99000000000000    2.50000000000000    0.00000000000000   rchrg,fchrg,qchrg
     nproj     2     2     2
     extension_switch     1
  pspatm : epsatm=   14.68144390
         --- l  ekb(1:nproj) -->
             0   11.362348    1.263639
             1    1.975402   -0.084666
             2   -5.186090   -1.477451
 pspatm: atomic psp has been read  and splines computed

- pspini: atom type   2  psp file is ../../../Psps_for_tests/O.psp8
- pspatm: opening atomic psp file    ../../../Psps_for_tests/O.psp8
- O     ONCVPSP-3.2.3.1  r_core=   1.35509   1.45563   1.26150
-  8.00000   6.00000    170504                znucl, zion, pspdat
    8   11    2    4       600   0.00000      pspcod,pspxc,lmax,lloc,mmax,r2well
    5.99000000000000    4.00000000000000    0.00000000000000   rchrg,fchrg,qchrg
     nproj     2     2     1
     extension_switch     1
  pspatm : epsatm=    6.19546011
         --- l  ekb(1:nproj) -->
             0    6.056735    0.824024
             1   -4.717130   -1.149271
             2   -1.331955
 pspatm: atomic psp has been read  and splines computed

- pspini: atom type   3  psp file is ../../../Psps_for_tests/Pd.psp8
- pspatm: opening atomic psp file    ../../../Psps_for_tests/Pd.psp8
- Pd    ONCVPSP-3.2.3.1  r_core=   1.41052   1.46191   1.55175
- 46.00000  18.00000    170510                znucl, zion, pspdat
    8   11    2    4       600   0.00000      pspcod,pspxc,lmax,lloc,mmax,r2well
    5.99000000000000    7.00000000000000    0.00000000000000   rchrg,fchrg,qchrg
     nproj     2     2     2
     extension_switch     1
  pspatm : epsatm=   26.09224486
         --- l  ekb(1:nproj) -->
             0    7.845850   -2.282160
             1    3.261104   -0.686948
             2   -1.134855   -0.401224
 pspatm: atomic psp has been read  and splines computed

--------------------------------------------------------------------------------

_setup2: Arith. and geom. avg. npw (full set) are   42792.000   42791.997

================================================================================

     iter   Etot(hartree)      deltaE(h)  residm     vres2
 ETOT  1  -680.71098002214    -6.807E+02 1.661E-01 5.426E+06
 ETOT  2  -521.40400338332     1.593E+02 2.784E-01 2.973E+07
 ETOT  3  -670.81756064106    -1.494E+02 1.821E-01 7.149E+06
 ETOT  4  -719.63590913894    -4.882E+01 1.504E-01 5.492E+05
 ETOT  5  -723.40581639811    -3.770E+00 4.481E-02 1.654E+05
 ETOT  6  -724.01186613143    -6.060E-01 1.841E-02 1.177E+05
 ETOT  7  -723.34576384738     6.661E-01 2.668E-03 2.505E+05
 ETOT  8  -723.29800271703     4.776E-02 1.343E-03 2.679E+05
 ETOT  9  -719.59028133202     3.708E+00 4.673E-04 8.427E+05
 ETOT 10  -714.20538020521     5.385E+00 3.623E-02 1.376E+06
 ETOT 11  -706.94009621952     7.265E+00 3.791E-02 2.766E+06
 ETOT 12  -709.51375815954    -2.574E+00 9.335E-03 2.287E+06
 ETOT 13  -723.35746408091    -1.384E+01 5.622E-02 8.437E+04
 ETOT 14  -725.92598039964    -2.569E+00 1.479E-02 1.810E+04
 ETOT 15  -726.06859748237    -1.426E-01 5.075E-03 4.447E+03
 ETOT 16  -725.61233842542     4.563E-01 1.374E-03 5.857E+04
 ETOT 17  -725.51836513930     9.397E-02 2.763E-03 5.473E+04
 ETOT 18  -725.92038048552    -4.020E-01 2.451E-03 3.501E+04
 ETOT 19  -725.99128348682    -7.090E-02 8.645E-04 3.492E+04
 ETOT 20  -726.01824118960    -2.696E-02 1.264E-03 2.962E+04
 ETOT 21  -725.91038832880     1.079E-01 6.761E-04 4.028E+04
 ETOT 22  -725.44545395449     4.649E-01 1.961E-03 2.703E+04
 ETOT 23  -726.00211083918    -5.567E-01 4.984E-04 2.860E+04
 ETOT 24  -726.17843511210    -1.763E-01 2.352E-04 3.911E+03
 ETOT 25  -726.06040968102     1.180E-01 2.373E-04 2.454E+04
 ETOT 26  -725.76971694734     2.907E-01 1.750E-03 3.835E+04
 ETOT 27  -726.00758170077    -2.379E-01 1.130E-04 2.048E+04
 ETOT 28  -726.12845603540    -1.209E-01 2.030E-04 1.029E+04
 ETOT 29  -726.17764688175    -4.919E-02 7.681E-05 8.364E+03
 ETOT 30  -726.24677568452    -6.913E-02 2.727E-04 1.510E+03
 ETOT 31  -726.25355561995    -6.780E-03 7.808E-05 1.403E+03
 ETOT 32  -726.24730152757     6.254E-03 1.772E-04 1.833E+03

 At SCF step   32, etot is converged : 
  for the second time, diff in etot=  6.254E-03 < toldfe=  1.000E-02

 Cartesian components of stress tensor (hartree/bohr^3)
  sigma(1 1)=  3.79381838E-04  sigma(3 2)=  2.32763649E-05
  sigma(2 2)= -7.71258851E-04  sigma(3 1)= -1.38010788E-04
  sigma(3 3)=  5.53636163E-04  sigma(2 1)= -8.07982285E-05

 Integrated electronic density in atomic spheres:
 ------------------------------------------------
 Atom  Sphere_radius  Integrated_density
    1        2.00000          9.44539815
    2        2.00000          9.37647597
    3        2.00000          6.05397441
    4        2.00000          5.78488063
    5        2.00000          5.86731372
    6        2.00000          6.06458288
    7        2.00000         15.37205198
    8        2.00000         15.46760596
    9        2.00000         15.47042903
   10        2.00000         15.22492405
================================================================================

 ----iterations are completed or convergence reached----

 Mean square residual over all n,k,spin=   9.6815E-06; max=  1.7717E-04
 reduced coordinates (array xred) for   10 atoms
       0.000000000000      0.000000000000      0.000000000000
       0.500000000000      0.322044051240      0.169765713615
       0.309994470556      0.000000000000      0.105252865021
       0.690005529444      0.000000000000      0.234278562209
       0.190005529444      0.322044051240      0.275018578637
       0.809994470556      0.322044051240      0.064512848594
       0.190005529444      0.000000000000      0.557273047288
       0.423486314625      0.299453967376      0.658947080221
       0.423486314625     -0.299453967376      0.658947080221
       0.000000000000      0.000000000000      0.760617201862
 rms dE/dt=  1.3034E+00; max dE/dt=  3.2092E+00; dE/dt below (all hartree)
    1      -0.010241791680     -0.529346557580     -2.114033294811
    2      -0.120207054475      0.819513537195     -1.940613798931
    3       0.451867311145      0.063404163423      1.678168991459
    4       0.238156195836     -0.539893418824      0.853886647591
    5      -0.277163631352     -0.086550998397      0.862394520075
    6      -0.298703744027      0.306873539018      1.109070380491
    7       0.634037035448      0.014213434090      2.818599655730
    8      -0.291480860073      3.209242078814     -1.780522861025
    9      -0.317315745940     -3.215954745405     -1.741795157639
   10      -0.027220696420     -0.010700776724      0.208922904852

 cartesian coordinates (angstrom) at end:
    1      0.00000000000000     0.00000000000000     0.00000000000000
    2      2.29684075616404     1.47936780433420     2.29684075616404
    3      1.42401586831569     0.00000000000000     1.42401586831569
    4      3.16966564401238     0.00000000000000     3.16966564401238
    5      0.87282488784835     1.47936780433420     3.72085662447972
    6      3.72085662447973     1.47936780433420     0.87282488784835
    7      0.87282488784835     0.00000000000000     7.53961103254860
    8      1.94536125421856     1.37559615372970     8.91520718627831
    9      1.94536125421856    -1.37559615372970     8.91520718627831
   10      0.00000000000000     0.00000000000000    10.29075042228715

 cartesian forces (hartree/bohr) at end:
    1      0.00096932235810     0.06133381521767     0.08250639862284
    2      0.01363696391130    -0.09405049207841     0.07572345592796
    3     -0.05226414723284    -0.00694914499383    -0.06581770222084
    4     -0.02764532001540     0.06254877941952    -0.03357761367434
    5      0.03171785240975     0.01032520320219    -0.03391038140166
    6      0.03419920351498    -0.03499602726213    -0.04355859434864
    7     -0.07324950852475    -0.00128253254641    -0.11042327441433
    8      0.03336715071411    -0.36933946793530     0.06946183204148
    9      0.03634324575920     0.37082236325760     0.06794707851600
   10      0.00292523710554     0.00158750371910    -0.00835119904847
 frms,max,avg= 1.0774101E-01 3.7082236E-01   2.105E-04 -3.548E-04  1.796E-04 h/b

 cartesian forces (eV/Angstrom) at end:
    1      0.04984455555172     3.15391132194307     4.24264924374649
    2      0.70124081999714    -4.83627034691607     3.89385633586131
    3     -2.68753028169473    -0.35733937300440    -3.38448204276707
    4     -1.42157939280111     3.21638728790712    -1.72663017220583
    5      1.63099741093596     0.53094325153579    -1.74374177530854
    6      1.75859360427130    -1.79956792534989    -2.23987279116019
    7     -3.76664085615928    -0.06595046964779    -5.67819259482588
    8      1.71580773256522   -18.99219745955174     3.57187071668457
    9      1.86884468004028    19.06845099652226     3.49397896517655
   10      0.15042172729349     0.08163271656166    -0.42943588520141
 frms,max,avg= 5.5402648E+00 1.9068451E+01   1.082E-02 -1.825E-02  9.236E-03 e/A
 length scales=  8.680800000000  8.680800000000 25.567000000000 bohr
              =  4.593681512328  4.593681512328 13.529473692021 angstroms
 prteigrs : about to open file manualGeomOpt2_o_DS4_EIG
 Fermi (or HOMO) energy (hartree) =   0.04294   Average Vxc (hartree)=  -0.27773
 Eigenvalues (hartree) for nkpt=   2  k points:
 kpt#   1, nband= 62, wtk=  0.50000, kpt=  0.1250  0.5000  0.5000 (reduced coord)
  -3.10036   -3.06892   -3.04839   -3.01783   -2.10713   -2.05359   -1.92396   -1.82841
  -1.82620   -1.81717   -1.79876   -1.79496   -1.78697   -1.78505   -1.77446   -1.76683
  -1.75737   -1.75286   -1.23940   -1.23445   -1.22753   -1.18659   -1.18178   -1.17440
  -0.60529   -0.59395   -0.52980   -0.51589   -0.19716   -0.17649   -0.16906   -0.11918
  -0.11633   -0.11490   -0.10591   -0.09820   -0.09701   -0.09667   -0.08681   -0.08126
  -0.07709   -0.04572   -0.04485   -0.04081   -0.03821   -0.02677   -0.02485   -0.01194
  -0.01134   -0.00897   -0.00167    0.00103    0.00743    0.00801    0.01298    0.01830
   0.02441    0.02732    0.03018    0.03827    0.03923    0.04878
 prteigrs : prtvol=0 or 1, do not print more k-points.


--------------------------------------------------------------------------------
 Components of total free energy (in Hartree) :

    Kinetic energy  =  2.71863515931706E+02
    Hartree energy  =  4.05724639469570E+02
    XC energy       = -1.18175601968963E+02
    Ewald energy    = -2.18289520467623E+02
    PspCore energy  =  9.87299229316690E+00
    Loc. psp. energy= -1.07390128043420E+03
    NL   psp  energy= -3.34204635122592E+00
    >>>>>>>>> Etotal= -7.26247301527568E+02

 Other information on the energy :
    Total energy(eV)= -1.97621940991558E+04 ; Band energy (Ha)=  -9.8212850930E+01
--------------------------------------------------------------------------------

 Cartesian components of stress tensor (hartree/bohr^3)
  sigma(1 1)=  3.79381838E-04  sigma(3 2)=  2.32763649E-05
  sigma(2 2)= -7.71258851E-04  sigma(3 1)= -1.38010788E-04
  sigma(3 3)=  5.53636163E-04  sigma(2 1)= -8.07982285E-05

-Cartesian components of stress tensor (GPa)         [Pressure= -1.5864E+00 GPa]
- sigma(1 1)=  1.11617972E+01  sigma(3 2)=  6.84814182E-01
- sigma(2 2)= -2.26912150E+01  sigma(3 1)= -4.06041688E+00
- sigma(3 3)=  1.62885355E+01  sigma(2 1)= -2.37716555E+00

================================================================================
== DATASET  5 ==================================================================
-   nproc =    1

 Exchange-correlation functional for the present dataset will be:
  GGA: Perdew-Burke-Ernzerhof functional - ixc=11
 Citation for XC functional:
  J.P.Perdew, K.Burke, M.Ernzerhof, PRL 77, 3865 (1996)

 Real(R)+Recip(G) space primitive vectors, cartesian coordinates (Bohr,Bohr^-1):
 R(1)=  8.6808000  0.0000000  0.0000000  G(1)=  0.1151968  0.0000000  0.0000000
 R(2)=  0.0000000  8.6808000  0.0000000  G(2)=  0.0000000  0.1151968  0.0000000
 R(3)=  0.0000000  0.0000000 25.7560000  G(3)=  0.0000000  0.0000000  0.0388259
 Unit cell volume ucvol=  1.9408766E+03 bohr^3
 Angles (23,13,12)=  9.00000000E+01  9.00000000E+01  9.00000000E+01 degrees

 getcut: wavevector=  0.0000  0.0000  0.0000  ngfft=  64  64 180
         ecut(hartree)=     60.000   => boxcut(ratio)=   2.00426

--- Pseudopotential description ------------------------------------------------
- pspini: atom type   1  psp file is ../../../Psps_for_tests/Ti.psp8
- pspatm: opening atomic psp file    ../../../Psps_for_tests/Ti.psp8
- Ti    ONCVPSP-3.2.3.1  r_core=   1.35825   1.31050   1.66360
- 22.00000  12.00000    170504                znucl, zion, pspdat
    8   11    2    4       600   0.00000      pspcod,pspxc,lmax,lloc,mmax,r2well
    5.99000000000000    2.50000000000000    0.00000000000000   rchrg,fchrg,qchrg
     nproj     2     2     2
     extension_switch     1
  pspatm : epsatm=   14.68144390
         --- l  ekb(1:nproj) -->
             0   11.362348    1.263639
             1    1.975402   -0.084666
             2   -5.186090   -1.477451
 pspatm: atomic psp has been read  and splines computed

- pspini: atom type   2  psp file is ../../../Psps_for_tests/O.psp8
- pspatm: opening atomic psp file    ../../../Psps_for_tests/O.psp8
- O     ONCVPSP-3.2.3.1  r_core=   1.35509   1.45563   1.26150
-  8.00000   6.00000    170504                znucl, zion, pspdat
    8   11    2    4       600   0.00000      pspcod,pspxc,lmax,lloc,mmax,r2well
    5.99000000000000    4.00000000000000    0.00000000000000   rchrg,fchrg,qchrg
     nproj     2     2     1
     extension_switch     1
  pspatm : epsatm=    6.19546011
         --- l  ekb(1:nproj) -->
             0    6.056735    0.824024
             1   -4.717130   -1.149271
             2   -1.331955
 pspatm: atomic psp has been read  and splines computed

- pspini: atom type   3  psp file is ../../../Psps_for_tests/Pd.psp8
- pspatm: opening atomic psp file    ../../../Psps_for_tests/Pd.psp8
- Pd    ONCVPSP-3.2.3.1  r_core=   1.41052   1.46191   1.55175
- 46.00000  18.00000    170510                znucl, zion, pspdat
    8   11    2    4       600   0.00000      pspcod,pspxc,lmax,lloc,mmax,r2well
    5.99000000000000    7.00000000000000    0.00000000000000   rchrg,fchrg,qchrg
     nproj     2     2     2
     extension_switch     1
  pspatm : epsatm=   26.09224486
         --- l  ekb(1:nproj) -->
             0    7.845850   -2.282160
             1    3.261104   -0.686948
             2   -1.134855   -0.401224
 pspatm: atomic psp has been read  and splines computed

--------------------------------------------------------------------------------

_setup2: Arith. and geom. avg. npw (full set) are   43116.000   43115.981

================================================================================

     iter   Etot(hartree)      deltaE(h)  residm     vres2
 ETOT  1  -675.30503055277    -6.753E+02 1.772E-01 6.183E+06
 ETOT  2  -503.77978665058     1.715E+02 2.459E-01 3.266E+07
 ETOT  3  -654.20086058798    -1.504E+02 2.438E-01 9.603E+06
 ETOT  4  -721.24139848993    -6.704E+01 2.345E-01 2.284E+05
 ETOT  5  -723.42350008849    -2.182E+00 7.294E-02 1.650E+05
 ETOT  6  -723.85467669193    -4.312E-01 5.868E-03 1.362E+05
 ETOT  7  -723.44726048296     4.074E-01 7.396E-02 2.316E+05
 ETOT  8  -719.26293103436     4.184E+00 5.696E-03 8.511E+05
 ETOT  9  -719.68882170179    -4.259E-01 2.110E-03 8.234E+05
 ETOT 10  -719.99010750163    -3.013E-01 5.375E-02 3.127E+05
 ETOT 11  -715.18055184000     4.810E+00 3.679E-02 1.172E+06
 ETOT 12  -710.52483205492     4.656E+00 3.622E-02 1.953E+06
 ETOT 13  -720.57522472182    -1.005E+01 5.054E-02 4.370E+05
 ETOT 14  -724.66071008776    -4.085E+00 1.206E-02 1.563E+05
 ETOT 15  -725.29833885153    -6.376E-01 2.153E-02 5.132E+04
 ETOT 16  -725.80649565461    -5.082E-01 6.776E-03 4.449E+04
 ETOT 17  -725.80998784090    -3.492E-03 2.534E-03 4.346E+04
 ETOT 18  -725.87868303928    -6.870E-02 2.700E-03 5.151E+04
 ETOT 19  -725.81851969984     6.016E-02 7.849E-04 5.208E+04
 ETOT 20  -726.15194483093    -3.334E-01 3.591E-04 8.219E+03
 ETOT 21  -724.90802796212     1.244E+00 8.302E-03 1.598E+05
 ETOT 22  -725.62094228459    -7.129E-01 3.677E-04 7.558E+04
 ETOT 23  -725.91822971367    -2.973E-01 3.506E-04 3.872E+04
 ETOT 24  -725.95134798433    -3.312E-02 2.505E-04 3.750E+04
 ETOT 25  -726.25862309669    -3.073E-01 1.271E-04 5.890E+02
 ETOT 26  -726.16967819423     8.894E-02 2.087E-04 9.969E+03
 ETOT 27  -726.26164128163    -9.196E-02 1.452E-04 5.125E+02
 ETOT 28  -726.21435309945     4.729E-02 1.494E-04 5.306E+03
 ETOT 29  -726.19573219356     1.862E-02 1.040E-04 8.342E+03
 ETOT 30  -726.18704260791     8.690E-03 1.255E-04 9.350E+03
 ETOT 31  -726.26409662273    -7.705E-02 6.970E-05 3.615E+02
 ETOT 32  -726.26433155810    -2.349E-04 9.649E-05 3.290E+02
 ETOT 33  -726.26703767703    -2.706E-03 5.043E-05 1.140E+01

 At SCF step   33, etot is converged : 
  for the second time, diff in etot=  2.706E-03 < toldfe=  1.000E-02

 Cartesian components of stress tensor (hartree/bohr^3)
  sigma(1 1)=  2.33558400E-04  sigma(3 2)=  2.24532875E-05
  sigma(2 2)= -8.17660579E-04  sigma(3 1)= -1.32319171E-04
  sigma(3 3)=  2.48662123E-04  sigma(2 1)= -8.18769956E-05

 Integrated electronic density in atomic spheres:
 ------------------------------------------------
 Atom  Sphere_radius  Integrated_density
    1        2.00000          9.39804307
    2        2.00000          9.40086423
    3        2.00000          6.02979402
    4        2.00000          5.78927104
    5        2.00000          5.73518174
    6        2.00000          6.07645835
    7        2.00000         15.37834100
    8        2.00000         15.55538471
    9        2.00000         15.55132533
   10        2.00000         15.23763799
================================================================================

 ----iterations are completed or convergence reached----

 Mean square residual over all n,k,spin=   7.8878E-07; max=  5.0433E-05
 reduced coordinates (array xred) for   10 atoms
       0.000000000000      0.000000000000      0.000000000000
       0.500000000000      0.322044051240      0.168519956515
       0.309994470556      0.000000000000      0.104480509396
       0.690005529444      0.000000000000      0.232559403634
       0.190005529444      0.322044051240      0.273000465911
       0.809994470556      0.322044051240      0.064039447119
       0.190005529444      0.000000000000      0.560521820158
       0.423486314625      0.299453967376      0.661449759279
       0.423486314625     -0.299453967376      0.661449759279
       0.000000000000      0.000000000000      0.762373815810
 rms dE/dt=  1.3907E+00; max dE/dt=  3.3566E+00; dE/dt below (all hartree)
    1      -0.082054078998     -0.484853428108     -2.426076421565
[...]
                       2.1395124370E-05 -1.3721696665E-04 -8.3658354002E-05
           strten4     3.7938183797E-04 -7.7125885056E-04  5.5363616270E-04
                       2.3276364868E-05 -1.3801078786E-04 -8.0798228472E-05
           strten5     2.3355840038E-04 -8.1766057947E-04  2.4866212291E-04
                       2.2453287539E-05 -1.3231917124E-04 -8.1876995558E-05
           toldfe      1.00000000E-02 Hartree
            typat      1  1  2  2  2  2  3  3  3  3
              wtk        0.50000    0.50000
           xangst1     0.0000000000E+00  0.0000000000E+00  0.0000000000E+00
                       2.2968407562E+00  1.4793678043E+00  2.2968407562E+00
                       1.4240158683E+00  0.0000000000E+00  1.4240158683E+00
                       3.1696656440E+00  0.0000000000E+00  3.1696656440E+00
                       8.7282488785E-01  1.4793678043E+00  3.7208566245E+00
                       3.7208566245E+00  1.4793678043E+00  8.7282488785E-01
                       8.7282488785E-01  0.0000000000E+00  7.2395675553E+00
                       1.9453612542E+00  1.3755961537E+00  8.6151637090E+00
                       1.9453612542E+00 -1.3755961537E+00  8.6151637090E+00
                       0.0000000000E+00  0.0000000000E+00  9.9907069450E+00
           xangst2     0.0000000000E+00  0.0000000000E+00  0.0000000000E+00
                       2.2968407562E+00  1.4793678043E+00  2.2968407562E+00
                       1.4240158683E+00  0.0000000000E+00  1.4240158683E+00
                       3.1696656440E+00  0.0000000000E+00  3.1696656440E+00
                       8.7282488785E-01  1.4793678043E+00  3.7208566245E+00
                       3.7208566245E+00  1.4793678043E+00  8.7282488785E-01
                       8.7282488785E-01  0.0000000000E+00  7.3395820477E+00
                       1.9453612542E+00  1.3755961537E+00  8.7151782014E+00
                       1.9453612542E+00 -1.3755961537E+00  8.7151782014E+00
                       0.0000000000E+00  0.0000000000E+00  1.0090721437E+01
           xangst3     0.0000000000E+00  0.0000000000E+00  0.0000000000E+00
                       2.2968407562E+00  1.4793678043E+00  2.2968407562E+00
                       1.4240158683E+00  0.0000000000E+00  1.4240158683E+00
                       3.1696656440E+00  0.0000000000E+00  3.1696656440E+00
                       8.7282488785E-01  1.4793678043E+00  3.7208566245E+00
                       3.7208566245E+00  1.4793678043E+00  8.7282488785E-01
                       8.7282488785E-01  0.0000000000E+00  7.4395965401E+00
                       1.9453612542E+00  1.3755961537E+00  8.8151926939E+00
                       1.9453612542E+00 -1.3755961537E+00  8.8151926939E+00
                       0.0000000000E+00  0.0000000000E+00  1.0190735930E+01
           xangst4     0.0000000000E+00  0.0000000000E+00  0.0000000000E+00
                       2.2968407562E+00  1.4793678043E+00  2.2968407562E+00
                       1.4240158683E+00  0.0000000000E+00  1.4240158683E+00
                       3.1696656440E+00  0.0000000000E+00  3.1696656440E+00
                       8.7282488785E-01  1.4793678043E+00  3.7208566245E+00
                       3.7208566245E+00  1.4793678043E+00  8.7282488785E-01
                       8.7282488785E-01  0.0000000000E+00  7.5396110325E+00
                       1.9453612542E+00  1.3755961537E+00  8.9152071863E+00
                       1.9453612542E+00 -1.3755961537E+00  8.9152071863E+00
                       0.0000000000E+00  0.0000000000E+00  1.0290750422E+01
           xangst5     0.0000000000E+00  0.0000000000E+00  0.0000000000E+00
                       2.2968407562E+00  1.4793678043E+00  2.2968407562E+00
                       1.4240158683E+00  0.0000000000E+00  1.4240158683E+00
                       3.1696656440E+00  0.0000000000E+00  3.1696656440E+00
                       8.7282488785E-01  1.4793678043E+00  3.7208566245E+00
                       3.7208566245E+00  1.4793678043E+00  8.7282488785E-01
                       8.7282488785E-01  0.0000000000E+00  7.6396255250E+00
                       1.9453612542E+00  1.3755961537E+00  9.0152216787E+00
                       1.9453612542E+00 -1.3755961537E+00  9.0152216787E+00
                       0.0000000000E+00  0.0000000000E+00  1.0390764915E+01
            xcart1     0.0000000000E+00  0.0000000000E+00  0.0000000000E+00
                       4.3404000000E+00  2.7956000000E+00  4.3404000000E+00
                       2.6910000000E+00  0.0000000000E+00  2.6910000000E+00
                       5.9898000000E+00  0.0000000000E+00  5.9898000000E+00
                       1.6494000000E+00  2.7956000000E+00  7.0314000000E+00
                       7.0314000000E+00  2.7956000000E+00  1.6494000000E+00
                       1.6494000000E+00  0.0000000000E+00  1.3680800000E+01
                       3.6762000000E+00  2.5995000000E+00  1.6280300000E+01
                       3.6762000000E+00 -2.5995000000E+00  1.6280300000E+01
                       0.0000000000E+00  0.0000000000E+00  1.8879700000E+01
            xcart2     0.0000000000E+00  0.0000000000E+00  0.0000000000E+00
                       4.3404000000E+00  2.7956000000E+00  4.3404000000E+00
                       2.6910000000E+00  0.0000000000E+00  2.6910000000E+00
                       5.9898000000E+00  0.0000000000E+00  5.9898000000E+00
                       1.6494000000E+00  2.7956000000E+00  7.0314000000E+00
                       7.0314000000E+00  2.7956000000E+00  1.6494000000E+00
                       1.6494000000E+00  0.0000000000E+00  1.3869800000E+01
                       3.6762000000E+00  2.5995000000E+00  1.6469300000E+01
                       3.6762000000E+00 -2.5995000000E+00  1.6469300000E+01
                       0.0000000000E+00  0.0000000000E+00  1.9068700000E+01
            xcart3     0.0000000000E+00  0.0000000000E+00  0.0000000000E+00
                       4.3404000000E+00  2.7956000000E+00  4.3404000000E+00
                       2.6910000000E+00  0.0000000000E+00  2.6910000000E+00
                       5.9898000000E+00  0.0000000000E+00  5.9898000000E+00
                       1.6494000000E+00  2.7956000000E+00  7.0314000000E+00
                       7.0314000000E+00  2.7956000000E+00  1.6494000000E+00
                       1.6494000000E+00  0.0000000000E+00  1.4058800000E+01
                       3.6762000000E+00  2.5995000000E+00  1.6658300000E+01
                       3.6762000000E+00 -2.5995000000E+00  1.6658300000E+01
                       0.0000000000E+00  0.0000000000E+00  1.9257700000E+01
            xcart4     0.0000000000E+00  0.0000000000E+00  0.0000000000E+00
                       4.3404000000E+00  2.7956000000E+00  4.3404000000E+00
                       2.6910000000E+00  0.0000000000E+00  2.6910000000E+00
                       5.9898000000E+00  0.0000000000E+00  5.9898000000E+00
                       1.6494000000E+00  2.7956000000E+00  7.0314000000E+00
                       7.0314000000E+00  2.7956000000E+00  1.6494000000E+00
                       1.6494000000E+00  0.0000000000E+00  1.4247800000E+01
                       3.6762000000E+00  2.5995000000E+00  1.6847300000E+01
                       3.6762000000E+00 -2.5995000000E+00  1.6847300000E+01
                       0.0000000000E+00  0.0000000000E+00  1.9446700000E+01
            xcart5     0.0000000000E+00  0.0000000000E+00  0.0000000000E+00
                       4.3404000000E+00  2.7956000000E+00  4.3404000000E+00
                       2.6910000000E+00  0.0000000000E+00  2.6910000000E+00
                       5.9898000000E+00  0.0000000000E+00  5.9898000000E+00
                       1.6494000000E+00  2.7956000000E+00  7.0314000000E+00
                       7.0314000000E+00  2.7956000000E+00  1.6494000000E+00
                       1.6494000000E+00  0.0000000000E+00  1.4436800000E+01
                       3.6762000000E+00  2.5995000000E+00  1.7036300000E+01
                       3.6762000000E+00 -2.5995000000E+00  1.7036300000E+01
                       0.0000000000E+00  0.0000000000E+00  1.9635700000E+01
             xred1     0.0000000000E+00  0.0000000000E+00  0.0000000000E+00
                       5.0000000000E-01  3.2204405124E-01  1.7361600000E-01
                       3.0999447056E-01  0.0000000000E+00  1.0764000000E-01
                       6.9000552944E-01  0.0000000000E+00  2.3959200000E-01
                       1.9000552944E-01  3.2204405124E-01  2.8125600000E-01
                       8.0999447056E-01  3.2204405124E-01  6.5976000000E-02
                       1.9000552944E-01  0.0000000000E+00  5.4723200000E-01
                       4.2348631463E-01  2.9945396738E-01  6.5121200000E-01
                       4.2348631463E-01 -2.9945396738E-01  6.5121200000E-01
                       0.0000000000E+00  0.0000000000E+00  7.5518800000E-01
             xred2     0.0000000000E+00  0.0000000000E+00  0.0000000000E+00
                       5.0000000000E-01  3.2204405124E-01  1.7231331137E-01
                       3.0999447056E-01  0.0000000000E+00  1.0683234745E-01
                       6.9000552944E-01  0.0000000000E+00  2.3779427528E-01
                       1.9000552944E-01  3.2204405124E-01  2.7914565882E-01
                       8.0999447056E-01  3.2204405124E-01  6.5480963913E-02
                       1.9000552944E-01  0.0000000000E+00  5.5062924292E-01
                       4.2348631463E-01  2.9945396738E-01  6.5382905236E-01
                       4.2348631463E-01 -2.9945396738E-01  6.5382905236E-01
                       0.0000000000E+00  0.0000000000E+00  7.5702489182E-01
             xred3     0.0000000000E+00  0.0000000000E+00  0.0000000000E+00
                       5.0000000000E-01  3.2204405124E-01  1.7103002601E-01
                       3.0999447056E-01  0.0000000000E+00  1.0603672472E-01
                       6.9000552944E-01  0.0000000000E+00  2.3602332729E-01
                       1.9000552944E-01  3.2204405124E-01  2.7706675073E-01
                       8.0999447056E-01  3.2204405124E-01  6.4993301285E-02
                       1.9000552944E-01  0.0000000000E+00  5.5397588462E-01
                       4.2348631463E-01  2.9945396738E-01  6.5640712428E-01
                       4.2348631463E-01 -2.9945396738E-01  6.5640712428E-01
                       0.0000000000E+00  0.0000000000E+00  7.5883442352E-01
             xred4     0.0000000000E+00  0.0000000000E+00  0.0000000000E+00
                       5.0000000000E-01  3.2204405124E-01  1.6976571362E-01
                       3.0999447056E-01  0.0000000000E+00  1.0525286502E-01
                       6.9000552944E-01  0.0000000000E+00  2.3427856221E-01
                       1.9000552944E-01  3.2204405124E-01  2.7501857864E-01
                       8.0999447056E-01  3.2204405124E-01  6.4512848594E-02
                       1.9000552944E-01  0.0000000000E+00  5.5727304729E-01
                       4.2348631463E-01  2.9945396738E-01  6.5894708022E-01
                       4.2348631463E-01 -2.9945396738E-01  6.5894708022E-01
                       0.0000000000E+00  0.0000000000E+00  7.6061720186E-01
             xred5     0.0000000000E+00  0.0000000000E+00  0.0000000000E+00
                       5.0000000000E-01  3.2204405124E-01  1.6851995651E-01
                       3.0999447056E-01  0.0000000000E+00  1.0448050940E-01
                       6.9000552944E-01  0.0000000000E+00  2.3255940363E-01
                       1.9000552944E-01  3.2204405124E-01  2.7300046591E-01
                       8.0999447056E-01  3.2204405124E-01  6.4039447119E-02
                       1.9000552944E-01  0.0000000000E+00  5.6052182016E-01
                       4.2348631463E-01  2.9945396738E-01  6.6144975928E-01
                       4.2348631463E-01 -2.9945396738E-01  6.6144975928E-01
                       0.0000000000E+00  0.0000000000E+00  7.6237381581E-01
            znucl       22.00000    8.00000   46.00000

================================================================================

- Total cpu        time (s,m,h):       6800.2      113.34      1.889
- Total wall clock time (s,m,h):       6824.4      113.74      1.896
-
- For major independent code sections, cpu and wall times (sec),
-  as well as % of the time and number of calls for node 0-
-<BEGIN_TIMER mpi_nprocs = 1, omp_nthreads = 1, mpi_rank = 0>
- cpu_time =         6800.2, wall_time =         6824.4
-
- routine                        cpu     %       wall     %      number of calls  Gflops    Speedup Efficacity
-                                                                  (-1=no count)
- projbd                      1915.609  28.2   1924.871  28.2         173894      -1.00        1.00       1.00
- nonlop(apply)               1842.141  27.1   1847.407  27.1         109019      -1.00        1.00       1.00
- fourwf%(pot)                1829.781  26.9   1835.906  26.9         109019      -1.00        1.00       1.00
- vtowfk(ssdiag)               339.250   5.0    340.240   5.0             -1      -1.00        1.00       1.00
- fourwf%(den)                 197.438   2.9    197.801   2.9          20160      -1.00        1.00       1.00
- xc:pot/=fourdp                43.375   0.6     43.013   0.6            173      -1.00        1.01       1.01
- getghc-other                  39.344   0.6     39.095   0.6             -1      -1.00        1.01       1.01
- fourdp                        37.062   0.5     37.985   0.6           2061      -1.00        0.98       0.98
- others (105)                  74.219   1.1     75.506   1.1             -1      -1.00        0.98       0.98
-<END_TIMER>
-
- subtotal                    6318.219  92.9   6341.824  92.9                                  1.00       1.00

- For major independent code sections, cpu and wall times (sec),
- as well as % of the total time and number of calls 

-<BEGIN_TIMER mpi_nprocs = 1, omp_nthreads = 1, mpi_rank = world>
- cpu_time =        6800.2, wall_time =        6824.4
-
- routine                         cpu     %       wall     %      number of calls Gflops    Speedup Efficacity
-                                                                  (-1=no count)
- projbd                      1915.609  28.2   1924.871  28.2         173894      -1.00        1.00       1.00
- nonlop(apply)               1842.141  27.1   1847.407  27.1         109019      -1.00        1.00       1.00
- fourwf%(pot)                1829.781  26.9   1835.906  26.9         109019      -1.00        1.00       1.00
- vtowfk(ssdiag)               339.250   5.0    340.240   5.0             -1      -1.00        1.00       1.00
- fourwf%(den)                 197.438   2.9    197.801   2.9          20160      -1.00        1.00       1.00
- xc:pot/=fourdp                43.375   0.6     43.013   0.6            173      -1.00        1.01       1.01
- getghc-other                  39.344   0.6     39.095   0.6             -1      -1.00        1.01       1.01
- fourdp                        37.062   0.5     37.985   0.6           2061      -1.00        0.98       0.98
- others (105)                  74.219   1.1     75.506   1.1             -1      -1.00        0.98       0.98
-<END_TIMER>

- subtotal                    6318.219  92.9   6341.824  92.9                                  1.00       1.00

================================================================================

 Suggested references for the acknowledgment of ABINIT usage.

 The users of ABINIT have little formal obligations with respect to the ABINIT group
 (those specified in the GNU General Public License, http://www.gnu.org/copyleft/gpl.txt).
 However, it is common practice in the scientific literature,
 to acknowledge the efforts of people that have made the research possible.
 In this spirit, please find below suggested citations of work written by ABINIT developers,
 corresponding to implementations inside of ABINIT that you have used in the present run.
 Note also that it will be of great value to readers of publications presenting these results,
 to read papers enabling them to understand the theoretical formalism and details
 of the ABINIT implementation.
 For information on why they are suggested, see also https://www.abinit.org/about/?text=acknowledgments.
-
- [1] Recent developments in the ABINIT software package.
- Computer Phys. Comm. 205, 106 (2016).
- X.Gonze, F.Jollet, F.Abreu Araujo, D.Adams, B.Amadon, T.Applencourt,
- C.Audouze, J.-M.Beuken, J.Bieder, A.Bokhanchuk, E.Bousquet, F.Bruneval
- D.Caliste, M.Cote, F.Dahm, F.Da Pieve, M.Delaveau, M.Di Gennaro,
- B.Dorado, C.Espejo, G.Geneste, L.Genovese, A.Gerossier, M.Giantomassi,
- Y.Gillet, D.R.Hamann, L.He, G.Jomard, J.Laflamme Janssen, S.Le Roux,
- A.Levitt, A.Lherbier, F.Liu, I.Lukacevic, A.Martin, C.Martins,
- M.J.T.Oliveira, S.Ponce, Y.Pouillon, T.Rangel, G.-M.Rignanese,
- A.H.Romero, B.Rousseau, O.Rubel, A.A.Shukri, M.Stankovski, M.Torrent,
- M.J.Van Setten, B.Van Troeye, M.J.Verstraete, D.Waroquier, J.Wiktor,
- B.Xue, A.Zhou, J.W.Zwanziger.
- Comment : the fourth generic paper describing the ABINIT project.
- Note that a version of this paper, that is not formatted for Computer Phys. Comm. 
- is available at https://www.abinit.org/about/ABINIT16.pdf .
- The licence allows the authors to put it on the Web.
-
- [2] Optimized norm-conserving Vanderbilt pseudopotentials.
- D.R. Hamann, Phys. Rev. B 88, 085117 (2013).
- Comment: Some pseudopotential generated using the ONCVPSP code were used.
-
- [3] ABINIT : First-principles approach of materials and nanosystem properties.
- Computer Phys. Comm. 180, 2582-2615 (2009).
- X. Gonze, B. Amadon, P.-M. Anglade, J.-M. Beuken, F. Bottin, P. Boulanger, F. Bruneval,
- D. Caliste, R. Caracas, M. Cote, T. Deutsch, L. Genovese, Ph. Ghosez, M. Giantomassi
- S. Goedecker, D.R. Hamann, P. Hermet, F. Jollet, G. Jomard, S. Leroux, M. Mancini, S. Mazevet,
- M.J.T. Oliveira, G. Onida, Y. Pouillon, T. Rangel, G.-M. Rignanese, D. Sangalli, R. Shaltaf,
- M. Torrent, M.J. Verstraete, G. Zerah, J.W. Zwanziger
- Comment : the third generic paper describing the ABINIT project.
- Note that a version of this paper, that is not formatted for Computer Phys. Comm. 
- is available at https://www.abinit.org/about/ABINIT_CPC_v10.pdf .
- The licence allows the authors to put it on the Web.
-
- [4] A brief introduction to the ABINIT software package.
- Z. Kristallogr. 220, 558-562 (2005).
- X. Gonze, G.-M. Rignanese, M. Verstraete, J.-M. Beuken, Y. Pouillon, R. Caracas, F. Jollet,
- M. Torrent, G. Zerah, M. Mikami, Ph. Ghosez, M. Veithen, J.-Y. Raty, V. Olevano, F. Bruneval,
- L. Reining, R. Godby, G. Onida, D.R. Hamann, and D.C. Allan.
- Comment : the second generic paper describing the ABINIT project. Note that this paper
- should be cited especially if you are using the GW part of ABINIT, as several authors
- of this part are not in the list of authors of the first or third paper.
- The .pdf of the latter paper is available at https://www.abinit.org/about/zfk_0505-06_558-562.pdf.
- Note that it should not redistributed (Copyright by Oldenburg Wissenshaftverlag,
- the licence allows the authors to put it on the Web).
-
- And optionally:
-
- [5] First-principles computation of material properties : the ABINIT software project. 
- X. Gonze, J.-M. Beuken, R. Caracas, F. Detraux, M. Fuchs, G.-M. Rignanese, L. Sindic,
- M. Verstraete, G. Zerah, F. Jollet, M. Torrent, A. Roy, M. Mikami, Ph. Ghosez, J.-Y. Raty, D.C. Allan.
- Computational Materials Science 25, 478-492 (2002). http://dx.doi.org/10.1016/S0927-0256(02)00325-7
- Comment : the original paper describing the ABINIT project.
-
- Proc.   0 individual time (sec): cpu=       6800.2  wall=       6824.4

================================================================================

 Calculation completed.
.Delivered   0 WARNINGs and  10 COMMENTs to log file.
+Overall time at end (sec) : cpu=       6800.2  wall=       6824.4
