
.Version 8.6.3 of ABINIT 
.(sequential version, prepared for a x86_64_linux_gnu5.4 computer) 

.Copyright (C) 1998-2017 ABINIT group . 
 ABINIT comes with ABSOLUTELY NO WARRANTY.
 It is free software, and you are welcome to redistribute it
 under certain conditions (GNU General Public License,
 see ~abinit/COPYING or http://www.gnu.org/copyleft/gpl.txt).

 ABINIT is a project of the Universite Catholique de Louvain,
 Corning Inc. and other collaborators, see ~abinit/doc/developers/contributors.txt .
 Please read ~abinit/doc/users/acknowledgments.html for suggested
 acknowledgments of the ABINIT effort.
 For more information, see https://www.abinit.org .

.Starting date : Sat 21 Apr 2018.
- ( at 11h11 )
  
- input  file    -> RutileGeom.in
- output file    -> RutileGeom.out
- root for input  files -> RutileGeom_i
- root for output files -> RutileGeom_o


 Symmetries : space group P-4 2_1 m (#113); Bravais tP (primitive tetrag.)
================================================================================
 Values of the parameters that define the memory need of the present run
     intxc =       0    ionmov =       2      iscf =       7    lmnmax =       2
     lnmax =       2     mgfft =      27  mpssoang =       3    mqgrid =    3001
     natom =       6  nloc_mem =       1    nspden =       1   nspinor =       1
    nsppol =       1      nsym =       8    n1xccc =    2501    ntypat =       2
    occopt =       1   xclevel =       1
-    mband =          17        mffmem =           1         mkmem =           8
       mpw =         620          nfft =       11664          nkpt =           8
================================================================================
P This job should need less than                       5.573 Mbytes of memory.
  Rough estimation (10% accuracy) of disk space for files :
_ WF disk file :      1.289 Mbytes ; DEN or POT disk file :      0.091 Mbytes.
================================================================================

--------------------------------------------------------------------------------
------------- Echo of variables that govern the present computation ------------
--------------------------------------------------------------------------------
-
- outvars: echo of selected default values                                      
-   iomode0 =  0 , fftalg0 =112 , wfoptalg0 =  0
-
- outvars: echo of global parameters not present in the input file              
-  max_nthreads =    0
-
 -outvars: echo values of preprocessed input variables --------
            acell      8.6808000000E+00  8.6808000000E+00  5.5911000000E+00 Bohr
              amu      4.78800000E+01  1.59994000E+01
           diemac      1.20000000E+01
          dilatmx      1.10000000E+00
             ecut      8.00000000E+00 Hartree
           ecutsm      5.00000000E-01 Hartree
-          fftalg         112
           getwfk          -1
           ionmov           2
              kpt      0.00000000E+00  2.50000000E-01  0.00000000E+00
                       2.50000000E-01  5.00000000E-01  0.00000000E+00
                       0.00000000E+00  0.00000000E+00  2.50000000E-01
                       0.00000000E+00  5.00000000E-01  2.50000000E-01
                       2.50000000E-01  2.50000000E-01  2.50000000E-01
                       5.00000000E-01  5.00000000E-01  2.50000000E-01
                       0.00000000E+00  2.50000000E-01  5.00000000E-01
                       2.50000000E-01  5.00000000E-01  5.00000000E-01
         kptrlatt        2   -2   -2      2    2   -2      0    0    4
          kptrlen      2.23644000E+01
P           mkmem           8
            natom           6
            nband          17
            ngfft          27      27      16
             nkpt           8
            nstep          10
             nsym           8
            ntime          10
           ntypat           2
              occ      2.000000  2.000000  2.000000  2.000000  2.000000  2.000000
                       2.000000  2.000000  2.000000  2.000000  2.000000  2.000000
                       2.000000  2.000000  2.000000  2.000000  0.000000
          optcell           1
           shiftk     -5.00000000E-01 -5.00000000E-01  1.00000000E+00
          spgroup         113
           symrel      1  0  0   0  1  0   0  0  1      -1  0  0   0  1  0   0  0 -1
                      -1  0  0   0 -1  0   0  0  1       1  0  0   0 -1  0   0  0 -1
                       0  1  0   1  0  0   0  0  1       0 -1  0   1  0  0   0  0 -1
                       0 -1  0  -1  0  0   0  0  1       0  1  0  -1  0  0   0  0 -1
            tnons      0.0000000  0.0000000  0.0000000     0.5000000  0.5000000 -0.4999911
                       0.0000000  0.0000000  0.0000000     0.5000000  0.5000000 -0.4999911
                       0.0000000  0.0000000  0.0000000     0.5000000  0.5000000 -0.4999911
                       0.0000000  0.0000000  0.0000000     0.5000000  0.5000000 -0.4999911
           toldfe      1.00000000E-06 Hartree
            typat      1  1  2  2  2  2
              wtk        0.12500    0.12500    0.06250    0.12500    0.25000    0.06250
                         0.12500    0.12500
           xangst      0.0000000000E+00  0.0000000000E+00  0.0000000000E+00
                       2.2968407562E+00  2.2968407562E+00  1.4793678043E+00
                       1.4240158683E+00  1.4240158683E+00  0.0000000000E+00
                       3.1696656440E+00  3.1696656440E+00  0.0000000000E+00
                       8.7282488785E-01  3.7208566245E+00  1.4793678043E+00
                       3.7208566245E+00  8.7282488785E-01  1.4793678043E+00
            xcart      0.0000000000E+00  0.0000000000E+00  0.0000000000E+00
                       4.3404000000E+00  4.3404000000E+00  2.7956000000E+00
                       2.6910000000E+00  2.6910000000E+00  0.0000000000E+00
                       5.9898000000E+00  5.9898000000E+00  0.0000000000E+00
                       1.6494000000E+00  7.0314000000E+00  2.7956000000E+00
                       7.0314000000E+00  1.6494000000E+00  2.7956000000E+00
             xred      0.0000000000E+00  0.0000000000E+00  0.0000000000E+00
                       5.0000000000E-01  5.0000000000E-01  5.0000894278E-01
                       3.0999447056E-01  3.0999447056E-01  0.0000000000E+00
                       6.9000552944E-01  6.9000552944E-01  0.0000000000E+00
                       1.9000552944E-01  8.0999447056E-01  5.0000894278E-01
                       8.0999447056E-01  1.9000552944E-01  5.0000894278E-01
            znucl       22.00000    8.00000

================================================================================

 chkinp: Checking input parameters for consistency.

 chkinp: WARNING -
   Chksymbreak=1 . Found potentially symmetry-breaking value of tnons, 
   which is neither a rational fraction in 1/8th nor in 1/12th :
   for the symmetry number    2
   symrel is  -1  0  0  0  1  0  0  0 -1
   tnons is     5.000000E-01    5.000000E-01   -4.999911E-01
   Please, read the description of the input variable chksymbreak,
   then, if you feel confident, you might switch it to zero, or consult with the forum.

 chkinp: WARNING -
   Chksymbreak=1 . Found potentially symmetry-breaking value of tnons, 
   which is neither a rational fraction in 1/8th nor in 1/12th :
   for the symmetry number    4
   symrel is   1  0  0  0 -1  0  0  0 -1
   tnons is     5.000000E-01    5.000000E-01   -4.999911E-01
   Please, read the description of the input variable chksymbreak,
   then, if you feel confident, you might switch it to zero, or consult with the forum.

 chkinp: WARNING -
   Chksymbreak=1 . Found potentially symmetry-breaking value of tnons, 
   which is neither a rational fraction in 1/8th nor in 1/12th :
   for the symmetry number    6
   symrel is   0 -1  0  1  0  0  0  0 -1
   tnons is     5.000000E-01    5.000000E-01   -4.999911E-01
   Please, read the description of the input variable chksymbreak,
   then, if you feel confident, you might switch it to zero, or consult with the forum.

 chkinp: WARNING -
   Chksymbreak=1 . Found potentially symmetry-breaking value of tnons, 
   which is neither a rational fraction in 1/8th nor in 1/12th :
   for the symmetry number    8
   symrel is   0  1  0 -1  0  0  0  0 -1
   tnons is     5.000000E-01    5.000000E-01   -4.999911E-01
   Please, read the description of the input variable chksymbreak,
   then, if you feel confident, you might switch it to zero, or consult with the forum.

================================================================================
== DATASET  1 ==================================================================
-   nproc =    1

 Exchange-correlation functional for the present dataset will be:
  LDA: new Teter (4/93) with spin-polarized option - ixc=1
 Citation for XC functional:
  S. Goedecker, M. Teter, J. Huetter, PRB 54, 1703 (1996)

 Real(R)+Recip(G) space primitive vectors, cartesian coordinates (Bohr,Bohr^-1):
 R(1)=  8.6808000  0.0000000  0.0000000  G(1)=  0.1151968  0.0000000  0.0000000
 R(2)=  0.0000000  8.6808000  0.0000000  G(2)=  0.0000000  0.1151968  0.0000000
 R(3)=  0.0000000  0.0000000  5.5911000  G(3)=  0.0000000  0.0000000  0.1788557
 Unit cell volume ucvol=  4.2132455E+02 bohr^3
 Angles (23,13,12)=  9.00000000E+01  9.00000000E+01  9.00000000E+01 degrees

 getcut: wavevector=  0.0000  0.0000  0.0000  ngfft=  27  27  16
         ecut(hartree)=      9.680   => boxcut(ratio)=   2.04324

--- Pseudopotential description ------------------------------------------------
- pspini: atom type   1  psp file is ../../../Psps_for_tests/22ti.pspnc
- pspatm: opening atomic psp file    ../../../Psps_for_tests/22ti.pspnc
-  Troullier-Martins psp for element  Ti        Thu Oct 27 17:33:40 EDT 1994
- 22.00000   4.00000    940714                znucl, zion, pspdat
    1    1    2    0      2001   0.00000      pspcod,pspxc,lmax,lloc,mmax,r2well
    0   5.166   8.509    0   2.4203472        l,e99.0,e99.9,nproj,rcpsp
   0.00000000   0.00000000   0.00000000   0.00000000     rms, ekb1, ekb2, epsatm
    1   2.285   3.944    1   2.9934301        l,e99.0,e99.9,nproj,rcpsp
   0.00000000   0.00000000   0.00000000   0.00000000     rms, ekb1, ekb2, epsatm
    2  20.947  27.069    1   1.9326638        l,e99.0,e99.9,nproj,rcpsp
   0.00000000   0.00000000   0.00000000   0.00000000     rms, ekb1, ekb2, epsatm
    2.82741504495369    0.09256629068341    1.82586447305099   rchrg,fchrg,qchrg
  pspatm : epsatm=   66.67453488
         --- l  ekb(1:nproj) -->
             1    0.915537
             2   -8.015692
 pspatm: atomic psp has been read  and splines computed

- pspini: atom type   2  psp file is ../../../Psps_for_tests/8o.pspnc
- pspatm: opening atomic psp file    ../../../Psps_for_tests/8o.pspnc
-  Troullier-Martins psp for element  O         Thu Oct 27 17:29:57 EDT 1994
-  8.00000   6.00000    940714                znucl, zion, pspdat
    1    1    1    1      2001   0.00000      pspcod,pspxc,lmax,lloc,mmax,r2well
    0   5.480  16.893    1   1.4482335        l,e99.0,e99.9,nproj,rcpsp
   0.00000000   0.00000000   0.00000000   0.00000000     rms, ekb1, ekb2, epsatm
    1  20.911  28.075    0   1.4482335        l,e99.0,e99.9,nproj,rcpsp
   0.00000000   0.00000000   0.00000000   0.00000000     rms, ekb1, ekb2, epsatm
    0.56990156784787    3.95561236318184    0.63894027514378   rchrg,fchrg,qchrg
  pspatm : epsatm=    1.57752239
         --- l  ekb(1:nproj) -->
             0    5.670783
 pspatm: atomic psp has been read  and splines computed

   4.46909310E+03                                ecore*ucvol(ha*bohr**3)
--------------------------------------------------------------------------------

_setup2: Arith. and geom. avg. npw (full set) are     607.500     607.451

================================================================================

=== [ionmov= 2] Broyden-Fletcher-Goldfard-Shanno method (forces)            
================================================================================

--- Iteration: ( 1/10) Internal Cycle: (1/1)
--------------------------------------------------------------------------------

---SELF-CONSISTENT-FIELD CONVERGENCE--------------------------------------------

     iter   Etot(hartree)      deltaE(h)  residm     vres2
 ETOT  1  -67.943832711695    -6.794E+01 7.248E-02 2.247E+02
 ETOT  2  -68.325850795213    -3.820E-01 3.448E-03 7.137E+01
 ETOT  3  -68.478327908710    -1.525E-01 2.308E-03 4.179E-01
 ETOT  4  -68.478651948069    -3.240E-04 2.970E-04 2.928E-03
 ETOT  5  -68.478654631594    -2.684E-06 1.616E-05 8.975E-05
 ETOT  6  -68.478654760250    -1.287E-07 2.506E-05 1.342E-06
 ETOT  7  -68.478654761442    -1.192E-09 2.790E-06 1.448E-08

 At SCF step    7, etot is converged : 
  for the second time, diff in etot=  1.192E-09 < toldfe=  1.000E-06

 Cartesian components of stress tensor (hartree/bohr^3)
  sigma(1 1)= -2.93118160E-03  sigma(3 2)=  0.00000000E+00
  sigma(2 2)= -2.93118160E-03  sigma(3 1)=  0.00000000E+00
  sigma(3 3)= -6.11690271E-03  sigma(2 1)=  0.00000000E+00

 Integrated electronic density in atomic spheres:
 ------------------------------------------------
 Atom  Sphere_radius  Integrated_density
    1        2.00000          0.91892247
    2        2.00000          0.95860711
    3        2.00000          6.19437264
    4        2.00000          6.19437264
    5        2.00000          6.19912425
    6        2.00000          6.19912425

---OUTPUT-----------------------------------------------------------------------

 Cartesian coordinates (xcart) [bohr]
  0.00000000000000E+00  0.00000000000000E+00  0.00000000000000E+00
  4.34040000000000E+00  4.34040000000000E+00  2.79560000000000E+00
  2.69100000000000E+00  2.69100000000000E+00  0.00000000000000E+00
  5.98980000000000E+00  5.98980000000000E+00  0.00000000000000E+00
  1.64940000000000E+00  7.03140000000000E+00  2.79560000000000E+00
  7.03140000000000E+00  1.64940000000000E+00  2.79560000000000E+00
 Reduced coordinates (xred)
  0.00000000000000E+00  0.00000000000000E+00  0.00000000000000E+00
  5.00000000000000E-01  5.00000000000000E-01  5.00008942784067E-01
  3.09994470555709E-01  3.09994470555709E-01  0.00000000000000E+00
  6.90005529444291E-01  6.90005529444291E-01  0.00000000000000E+00
  1.90005529444291E-01  8.09994470555709E-01  5.00008942784067E-01
  8.09994470555709E-01  1.90005529444291E-01  5.00008942784067E-01
 Cartesian forces (fcart) [Ha/bohr]; max,rms= 6.97763E-02 4.65175E-02 (free atoms)
 -4.62592926927149E-18 -0.00000000000000E+00  5.75953505895077E-05
 -4.62592926927149E-18 -0.00000000000000E+00 -5.75953505895077E-05
 -6.97762935280945E-02 -6.97762935280945E-02  4.70513476272009E-05
  6.97762935280945E-02  6.97762935280945E-02  4.70513476272009E-05
  6.97762935280945E-02 -6.97762935280945E-02 -4.70513476272009E-05
 -6.97762935280945E-02  6.97762935280945E-02 -4.70513476272009E-05
 Reduced forces (fred)
  4.01567668006919E-17 -0.00000000000000E+00 -3.22021364680997E-04
  4.01567668006919E-17  0.00000000000000E+00  3.22021364680997E-04
  6.05714048858683E-01  6.05714048858683E-01 -2.63068789718443E-04
 -6.05714048858683E-01 -6.05714048858683E-01 -2.63068789718443E-04
 -6.05714048858683E-01  6.05714048858683E-01  2.63068789718443E-04
  6.05714048858683E-01 -6.05714048858683E-01  2.63068789718443E-04
 Scale of Primitive Cell (acell) [bohr]
  8.68080000000000E+00  8.68080000000000E+00  5.59110000000000E+00
 Real space primitive translations (rprimd) [bohr]
  8.68080000000000E+00  0.00000000000000E+00  0.00000000000000E+00
  0.00000000000000E+00  8.68080000000000E+00  0.00000000000000E+00
  0.00000000000000E+00  0.00000000000000E+00  5.59110000000000E+00
 Unitary Cell Volume (ucvol) [Bohr^3]=  4.21324545415104E+02
 Angles (23,13,12)= [degrees]
  9.00000000000000E+01  9.00000000000000E+01  9.00000000000000E+01
 Lengths [Bohr]
  8.68080000000000E+00  8.68080000000000E+00  5.59110000000000E+00
 Stress tensor in cartesian coordinates (strten) [Ha/bohr^3]
 -2.93118160409541E-03  0.00000000000000E+00  0.00000000000000E+00
  0.00000000000000E+00 -2.93118160409541E-03  0.00000000000000E+00
  0.00000000000000E+00  0.00000000000000E+00 -6.11690271063953E-03
 Total energy (etotal) [Ha]= -6.84786547614424E+01

--- Iteration: ( 2/10) Internal Cycle: (1/1)
--------------------------------------------------------------------------------

---SELF-CONSISTENT-FIELD CONVERGENCE--------------------------------------------

     iter   Etot(hartree)      deltaE(h)  residm     vres2
 ETOT  1  -65.440418865070    -6.544E+01 2.879E-03 1.311E+03
 ETOT  2  -67.390164246958    -1.950E+00 1.004E-03 5.044E+02
 ETOT  3  -68.788896583569    -1.399E+00 1.306E-02 1.533E+00
 ETOT  4  -68.791499696025    -2.603E-03 4.741E-04 1.507E-01
 ETOT  5  -68.791629488519    -1.298E-04 4.501E-02 6.089E-03
 ETOT  6  -68.791642547733    -1.306E-05 1.834E-03 3.675E-04
 ETOT  7  -68.791643199049    -6.513E-07 5.394E-05 1.922E-06
 ETOT  8  -68.791643201684    -2.635E-09 9.629E-06 4.441E-09

 At SCF step    8, etot is converged : 
  for the second time, diff in etot=  2.635E-09 < toldfe=  1.000E-06

 Cartesian components of stress tensor (hartree/bohr^3)
  sigma(1 1)=  3.95937426E-03  sigma(3 2)=  0.00000000E+00
  sigma(2 2)=  3.95937426E-03  sigma(3 1)=  0.00000000E+00
  sigma(3 3)=  3.30155039E-03  sigma(2 1)=  0.00000000E+00

 Integrated electronic density in atomic spheres:
 ------------------------------------------------
 Atom  Sphere_radius  Integrated_density
    1        2.00000          0.60367098
    2        2.00000          0.52236096
    3        2.00000          5.83214231
    4        2.00000          5.83214231
    5        2.00000          5.81625606
    6        2.00000          5.81625606

---OUTPUT-----------------------------------------------------------------------

 Cartesian coordinates (xcart) [bohr]
 -7.56699604077614E-18  0.00000000000000E+00  6.44948507935074E-05
  4.86034805794091E+00  4.86034805794091E+00  3.13042786317603E+00
  2.93522706459760E+00  2.93522706459760E+00  5.26877536778565E-05
  6.78546905128423E+00  6.78546905128423E+00  5.26877536778565E-05
  1.92512099334332E+00  7.79557512253851E+00  3.13043967027314E+00
  7.79557512253851E+00  1.92512099334332E+00  3.13043967027314E+00
 Reduced coordinates (xred)
 -7.78441785502693E-19  0.00000000000000E+00  1.03012556723199E-05
  5.00000000000000E-01  5.00000000000000E-01  4.99998641528395E-01
  3.01956467891428E-01  3.01956467891428E-01  8.41540083833250E-06
  6.98043532108572E-01  6.98043532108572E-01  8.41540083833250E-06
  1.98043532108572E-01  8.01956467891428E-01  5.00000527383229E-01
  8.01956467891428E-01  1.98043532108572E-01  5.00000527383229E-01
 Cartesian forces (fcart) [Ha/bohr]; max,rms= 5.97195E-03 3.98137E-03 (free atoms)
 -0.00000000000000E+00 -2.89120579329468E-19 -6.90366876218455E-06
 -0.00000000000000E+00 -2.89120579329468E-19  6.90366876218455E-06
 -5.97195338484501E-03 -5.97195338484501E-03 -4.96475787885023E-05
  5.97195338484501E-03  5.97195338484501E-03 -4.96475787885023E-05
  5.97195338484501E-03 -5.97195338484501E-03  4.96475787885023E-05
 -5.97195338484501E-03  5.97195338484501E-03  4.96475787885023E-05
 Reduced forces (fred)
  0.00000000000000E+00  2.81045329250946E-18  4.32229915369743E-05
 -0.00000000000000E+00  2.81045329250946E-18 -4.32229915369743E-05
  5.80515440722902E-02  5.80515440722902E-02  3.10837172484454E-04
 -5.80515440722902E-02 -5.80515440722902E-02  3.10837172484454E-04
 -5.80515440722902E-02  5.80515440722902E-02 -3.10837172484454E-04
  5.80515440722902E-02 -5.80515440722902E-02 -3.10837172484454E-04
 Scale of Primitive Cell (acell) [bohr]
  9.72069611588182E+00  9.72069611588182E+00  6.26087273678772E+00
 Real space primitive translations (rprimd) [bohr]
  9.72069611588182E+00  0.00000000000000E+00  0.00000000000000E+00
  0.00000000000000E+00  9.72069611588182E+00  0.00000000000000E+00
  0.00000000000000E+00  0.00000000000000E+00  6.26087273678772E+00
 Unitary Cell Volume (ucvol) [Bohr^3]=  5.91601967024075E+02
 Angles (23,13,12)= [degrees]
  9.00000000000000E+01  9.00000000000000E+01  9.00000000000000E+01
 Lengths [Bohr]
  9.72069611588182E+00  9.72069611588182E+00  6.26087273678772E+00
 Stress tensor in cartesian coordinates (strten) [Ha/bohr^3]
  3.95937426278055E-03  0.00000000000000E+00  0.00000000000000E+00
  0.00000000000000E+00  3.95937426278055E-03  0.00000000000000E+00
  0.00000000000000E+00  0.00000000000000E+00  3.30155039078975E-03
 Total energy (etotal) [Ha]= -6.87916432016838E+01

 Difference of energy with previous step (new-old):
           Absolute (Ha)=-3.12988E-01
           Relative     =-4.56018E-03

--- Iteration: ( 3/10) Internal Cycle: (1/1)
--------------------------------------------------------------------------------

---SELF-CONSISTENT-FIELD CONVERGENCE--------------------------------------------

     iter   Etot(hartree)      deltaE(h)  residm     vres2
 ETOT  1  -68.267821419077    -6.827E+01 3.671E-01 2.050E+02
 ETOT  2  -68.554939607149    -2.871E-01 1.605E-04 6.089E+01
 ETOT  3  -68.712515919330    -1.576E-01 2.382E-03 6.897E-01
 ETOT  4  -68.713657768087    -1.142E-03 5.619E-05 6.179E-03
 ETOT  5  -68.713669894368    -1.213E-05 1.182E-05 6.196E-05
 ETOT  6  -68.713669960455    -6.609E-08 4.152E-06 1.216E-06
 ETOT  7  -68.713669961922    -1.467E-09 1.016E-06 3.474E-08

 At SCF step    7, etot is converged : 
  for the second time, diff in etot=  1.467E-09 < toldfe=  1.000E-06

 Cartesian components of stress tensor (hartree/bohr^3)
  sigma(1 1)= -2.36058634E-03  sigma(3 2)=  0.00000000E+00
  sigma(2 2)= -2.36058634E-03  sigma(3 1)=  0.00000000E+00
  sigma(3 3)= -2.26671336E-03  sigma(2 1)=  0.00000000E+00

 Integrated electronic density in atomic spheres:
 ------------------------------------------------
 Atom  Sphere_radius  Integrated_density
    1        2.00000          0.71120956
    2        2.00000          0.72910575
    3        2.00000          6.01193187
    4        2.00000          6.01193187
    5        2.00000          6.03054904
    6        2.00000          6.03054904

---OUTPUT-----------------------------------------------------------------------

 Cartesian coordinates (xcart) [bohr]
 -7.26980597378830E-18 -2.15571498167816E-19  5.83150340279050E-05
  4.56550807424197E+00  4.56550807424197E+00  2.94053111735719E+00
  2.75234360731207E+00  2.75234360731207E+00  2.43924937647350E-05
  6.37867254117186E+00  6.37867254117186E+00  2.43924937647350E-05
  1.81316446692990E+00  7.31785168155403E+00  2.94056503989745E+00
  7.31785168155403E+00  1.81316446692990E+00  2.94056503989745E+00
 Reduced coordinates (xred)
 -7.96166150138213E-19 -2.36087084572300E-20  9.91571220093758E-06
  5.00000000000000E-01  5.00000000000000E-01  4.99999027071867E-01
  3.01427964046374E-01  3.01427964046374E-01  4.14762594356950E-06
  6.98572035953627E-01  6.98572035953627E-01  4.14762594356950E-06
  1.98572035953627E-01  8.01427964046373E-01  5.00004795158123E-01
  8.01427964046373E-01  1.98572035953627E-01  5.00004795158123E-01
 Cartesian forces (fcart) [Ha/bohr]; max,rms= 1.17348E-02 7.82317E-03 (free atoms)
 -5.78241158658936E-19  2.89120579329468E-19 -8.18163551981374E-06
 -5.78241158658936E-19  2.89120579329468E-19  8.18163551981374E-06
 -1.17347556917498E-02 -1.17347556917498E-02 -2.48560059306626E-06
  1.17347556917498E-02  1.17347556917498E-02 -2.48560059306626E-06
  1.17347556917498E-02 -1.17347556917498E-02  2.48560059306626E-06
 -1.17347556917498E-02  1.17347556917498E-02  2.48560059306626E-06
 Reduced forces (fred)
  5.27992935743280E-18 -2.63996467871640E-18  4.81168013021537E-05
  5.27992935743280E-18 -2.63996467871640E-18 -4.81168013021537E-05
  1.07150243719881E-01  1.07150243719881E-01  1.46180002229930E-05
 -1.07150243719881E-01 -1.07150243719881E-01  1.46180002229930E-05
 -1.07150243719881E-01  1.07150243719881E-01 -1.46180002229930E-05
  1.07150243719881E-01 -1.07150243719881E-01 -1.46180002229930E-05
 Scale of Primitive Cell (acell) [bohr]
  9.13101614848393E+00  9.13101614848393E+00  5.88107367843845E+00
 Real space primitive translations (rprimd) [bohr]
  9.13101614848393E+00  0.00000000000000E+00  0.00000000000000E+00
  0.00000000000000E+00  9.13101614848393E+00  0.00000000000000E+00
  0.00000000000000E+00  0.00000000000000E+00  5.88107367843845E+00
 Unitary Cell Volume (ucvol) [Bohr^3]=  4.90337199144081E+02
 Angles (23,13,12)= [degrees]
  9.00000000000000E+01  9.00000000000000E+01  9.00000000000000E+01
 Lengths [Bohr]
  9.13101614848393E+00  9.13101614848393E+00  5.88107367843845E+00
 Stress tensor in cartesian coordinates (strten) [Ha/bohr^3]
 -2.36058633647787E-03  0.00000000000000E+00  0.00000000000000E+00
  0.00000000000000E+00 -2.36058633647788E-03  0.00000000000000E+00
  0.00000000000000E+00  0.00000000000000E+00 -2.26671335856215E-03
 Total energy (etotal) [Ha]= -6.87136699619223E+01

 Difference of energy with previous step (new-old):
           Absolute (Ha)= 7.79732E-02
           Relative     = 1.13411E-03

--- Iteration: ( 4/10) Internal Cycle: (1/1)
--------------------------------------------------------------------------------

---SELF-CONSISTENT-FIELD CONVERGENCE--------------------------------------------

     iter   Etot(hartree)      deltaE(h)  residm     vres2
 ETOT  1  -68.699491401125    -6.870E+01 1.069E-05 3.195E+01
 ETOT  2  -68.743781064565    -4.429E-02 3.265E-05 1.122E+01
 ETOT  3  -68.774029051857    -3.025E-02 3.587E-04 6.364E-02
 ETOT  4  -68.774130882600    -1.018E-04 6.508E-06 2.018E-03
 ETOT  5  -68.774132447148    -1.565E-06 8.007E-07 2.036E-05
 ETOT  6  -68.774132471844    -2.470E-08 1.567E-07 3.547E-07
 ETOT  7  -68.774132472390    -5.455E-10 2.670E-08 1.824E-09

 At SCF step    7, etot is converged : 
  for the second time, diff in etot=  5.455E-10 < toldfe=  1.000E-06

 Cartesian components of stress tensor (hartree/bohr^3)
  sigma(1 1)= -8.14906862E-04  sigma(3 2)=  0.00000000E+00
  sigma(2 2)= -8.14906862E-04  sigma(3 1)=  0.00000000E+00
  sigma(3 3)= -1.81670725E-03  sigma(2 1)=  0.00000000E+00

 Integrated electronic density in atomic spheres:
 ------------------------------------------------
 Atom  Sphere_radius  Integrated_density
    1        2.00000          0.63902338
    2        2.00000          0.68049063
    3        2.00000          5.94611176
    4        2.00000          5.94611176
    5        2.00000          5.97354355
    6        2.00000          5.97354355

---OUTPUT-----------------------------------------------------------------------

 Cartesian coordinates (xcart) [bohr]
 -8.22325667877390E-18  8.98055571904800E-20  5.17512939963428E-05
  4.66550985540166E+00  4.66550985540166E+00  3.00494763856889E+00
  2.80264528914426E+00  2.80264528914426E+00  1.14374610837151E-05
  6.52837442165906E+00  6.52837442165906E+00  1.14374610837151E-05
  1.86286456625740E+00  7.46815514454592E+00  3.00498795240181E+00
  7.46815514454592E+00  1.86286456625740E+00  3.00498795240181E+00
 Reduced coordinates (xred)
 -8.81281674847726E-19  9.62440976161527E-21  8.61101998426678E-06
  5.00000000000000E-01  5.00000000000000E-01  5.00000331764083E-01
  3.00357878989303E-01  3.00357878989303E-01  1.90310615166655E-06
  6.99642121010697E-01  6.99642121010697E-01  1.90310615166656E-06
  1.99642121010697E-01  8.00357878989303E-01  5.00007039677916E-01
  8.00357878989303E-01  1.99642121010697E-01  5.00007039677916E-01
 Cartesian forces (fcart) [Ha/bohr]; max,rms= 7.46044E-03 4.97363E-03 (free atoms)
  2.89120579329468E-19 -2.89120579329468E-19 -9.07959282730461E-07
  2.89120579329468E-19 -2.89120579329468E-19  9.07959282730462E-07
 -7.46043696606726E-03 -7.46043696606725E-03  2.10934029986954E-05
  7.46043696606725E-03  7.46043696606725E-03  2.10934029986954E-05
  7.46043696606725E-03 -7.46043696606725E-03 -2.10934029986954E-05
 -7.46043696606725E-03  7.46043696606725E-03 -2.10934029986954E-05
 Reduced forces (fred)
 -2.69778982452214E-18  2.69778982452214E-18  5.45673658441679E-06
 -2.69778982452214E-18  2.69778982452214E-18 -5.45673658441679E-06
  6.96134843815793E-02  6.96134843815793E-02 -1.26769058945783E-04
 -6.96134843815793E-02 -6.96134843815793E-02 -1.26769058945783E-04
 -6.96134843815793E-02  6.96134843815793E-02  1.26769058945783E-04
  6.96134843815793E-02 -6.96134843815793E-02  1.26769058945783E-04
 Scale of Primitive Cell (acell) [bohr]
  9.33101971080332E+00  9.33101971080332E+00  6.00989128940564E+00
 Real space primitive translations (rprimd) [bohr]
  9.33101971080332E+00  0.00000000000000E+00  0.00000000000000E+00
  0.00000000000000E+00  9.33101971080332E+00  0.00000000000000E+00
  0.00000000000000E+00  0.00000000000000E+00  6.00989128940564E+00
 Unitary Cell Volume (ucvol) [Bohr^3]=  5.23268787142540E+02
 Angles (23,13,12)= [degrees]
  9.00000000000000E+01  9.00000000000000E+01  9.00000000000000E+01
 Lengths [Bohr]
  9.33101971080332E+00  9.33101971080332E+00  6.00989128940564E+00
 Stress tensor in cartesian coordinates (strten) [Ha/bohr^3]
 -8.14906861934740E-04  0.00000000000000E+00  0.00000000000000E+00
  0.00000000000000E+00 -8.14906861934740E-04  0.00000000000000E+00
  0.00000000000000E+00  0.00000000000000E+00 -1.81670725372572E-03
 Total energy (etotal) [Ha]= -6.87741324723899E+01

 Difference of energy with previous step (new-old):
           Absolute (Ha)=-6.04625E-02
           Relative     =-8.79533E-04

--- Iteration: ( 5/10) Internal Cycle: (1/1)
--------------------------------------------------------------------------------

---SELF-CONSISTENT-FIELD CONVERGENCE--------------------------------------------

     iter   Etot(hartree)      deltaE(h)  residm     vres2
 ETOT  1  -68.707873797677    -6.871E+01 1.762E-05 4.083E+01
 ETOT  2  -68.762402136493    -5.453E-02 1.675E-05 1.626E+01
 ETOT  3  -68.808405302260    -4.600E-02 4.921E-04 9.371E-02
 ETOT  4  -68.808561908493    -1.566E-04 3.792E-06 3.787E-03
 ETOT  5  -68.808564823786    -2.915E-06 5.999E-07 3.757E-05
 ETOT  6  -68.808564867699    -4.391E-08 3.899E-08 6.702E-07
 ETOT  7  -68.808564868671    -9.712E-10 2.395E-08 4.852E-09

 At SCF step    7, etot is converged : 
  for the second time, diff in etot=  9.712E-10 < toldfe=  1.000E-06

 Cartesian components of stress tensor (hartree/bohr^3)
  sigma(1 1)= -1.22260304E-03  sigma(3 2)=  0.00000000E+00
  sigma(2 2)= -1.22260304E-03  sigma(3 1)=  0.00000000E+00
  sigma(3 3)= -1.88728861E-03  sigma(2 1)=  0.00000000E+00

 Integrated electronic density in atomic spheres:
 ------------------------------------------------
 Atom  Sphere_radius  Integrated_density
    1        2.00000          0.62567800
    2        2.00000          0.60099198
    3        2.00000          5.90834082
    4        2.00000          5.90834082
    5        2.00000          5.87606914
    6        2.00000          5.87606914

---OUTPUT-----------------------------------------------------------------------

 Cartesian coordinates (xcart) [bohr]
 -5.97410552678008E-18 -1.59963051307720E-18  5.24080173856589E-05
  4.77695740766378E+00  4.77695740766378E+00  3.07672902430794E+00
  2.85449229798135E+00  2.85449229798135E+00  5.23429795884493E-05
  6.69942251734621E+00  6.69942251734621E+00  5.23429795884494E-05
  1.92246510968243E+00  7.63144970564513E+00  3.07672908934574E+00
  7.63144970564513E+00  1.92246510968243E+00  3.07672908934574E+00
 Reduced coordinates (xred)
 -6.25304458146905E-19 -1.67431942193045E-19  8.51684721283822E-06
  5.00000000000000E-01  5.00000000000000E-01  5.00000425936854E-01
  2.98777239818155E-01  2.98777239818155E-01  8.50627789521230E-06
  7.01222760181845E-01  7.01222760181845E-01  8.50627789521230E-06
  2.01222760181844E-01  7.98777239818155E-01  5.00000436506172E-01
  7.98777239818155E-01  2.01222760181844E-01  5.00000436506172E-01
 Cartesian forces (fcart) [Ha/bohr]; max,rms= 1.45211E-03 9.68293E-04 (free atoms)
 -0.00000000000000E+00 -0.00000000000000E+00 -5.52778788448367E-06
 -0.00000000000000E+00 -0.00000000000000E+00  5.52778788448367E-06
 -1.45210720433548E-03 -1.45210720433548E-03 -4.37707104281561E-05
  1.45210720433548E-03  1.45210720433548E-03 -4.37707104281561E-05
  1.45210720433548E-03 -1.45210720433548E-03  4.37707104281561E-05
 -1.45210720433548E-03  1.45210720433548E-03  4.37707104281561E-05
 Reduced forces (fred)
  0.00000000000000E+00  0.00000000000000E+00  3.40149818723486E-05
 -0.00000000000000E+00 -0.00000000000000E+00 -3.40149818723487E-05
  1.38733085329446E-02  1.38733085329446E-02  2.69341000933255E-04
 -1.38733085329446E-02 -1.38733085329446E-02  2.69341000933255E-04
 -1.38733085329446E-02  1.38733085329446E-02 -2.69341000933255E-04
  1.38733085329446E-02 -1.38733085329446E-02 -2.69341000933255E-04
 Scale of Primitive Cell (acell) [bohr]
  9.55391481532756E+00  9.55391481532756E+00  6.15345280665122E+00
 Real space primitive translations (rprimd) [bohr]
  9.55391481532756E+00  0.00000000000000E+00  0.00000000000000E+00
  0.00000000000000E+00  9.55391481532756E+00  0.00000000000000E+00
  0.00000000000000E+00  0.00000000000000E+00  6.15345280665122E+00
 Unitary Cell Volume (ucvol) [Bohr^3]=  5.61670485864135E+02
 Angles (23,13,12)= [degrees]
  9.00000000000000E+01  9.00000000000000E+01  9.00000000000000E+01
 Lengths [Bohr]
  9.55391481532756E+00  9.55391481532756E+00  6.15345280665122E+00
 Stress tensor in cartesian coordinates (strten) [Ha/bohr^3]
 -1.22260303542513E-03  0.00000000000000E+00  0.00000000000000E+00
  0.00000000000000E+00 -1.22260303542513E-03  0.00000000000000E+00
  0.00000000000000E+00  0.00000000000000E+00 -1.88728860569218E-03
 Total energy (etotal) [Ha]= -6.88085648686706E+01

 Difference of energy with previous step (new-old):
           Absolute (Ha)=-3.44324E-02
           Relative     =-5.00534E-04

--- Iteration: ( 6/10) Internal Cycle: (1/1)
--------------------------------------------------------------------------------

---SELF-CONSISTENT-FIELD CONVERGENCE--------------------------------------------

     iter   Etot(hartree)      deltaE(h)  residm     vres2
 ETOT  1  -67.761947650047    -6.776E+01 9.665E+00 3.961E+02
 ETOT  2  -68.303807050302    -5.419E-01 4.234E-03 8.457E+01
 ETOT  3  -68.498313781000    -1.945E-01 3.820E-03 1.232E+00
 ETOT  4  -68.500212413311    -1.899E-03 5.535E-04 1.016E-02
 ETOT  5  -68.500230318585    -1.791E-05 3.076E-04 2.495E-04
 ETOT  6  -68.500230675874    -3.573E-07 3.359E-04 6.451E-06
 ETOT  7  -68.500230684952    -9.079E-09 1.506E-04 1.231E-07

 At SCF step    7, etot is converged : 
  for the second time, diff in etot=  9.079E-09 < toldfe=  1.000E-06

 Cartesian components of stress tensor (hartree/bohr^3)
  sigma(1 1)= -3.14821427E-03  sigma(3 2)=  0.00000000E+00
  sigma(2 2)= -3.14821427E-03  sigma(3 1)=  0.00000000E+00
  sigma(3 3)= -4.99453206E-03  sigma(2 1)=  0.00000000E+00

 Integrated electronic density in atomic spheres:
 ------------------------------------------------
 Atom  Sphere_radius  Integrated_density
    1        2.00000          0.92303472
    2        2.00000          0.93931632
    3        2.00000          6.18689827
    4        2.00000          6.18689827
    5        2.00000          6.17686788
    6        2.00000          6.17686788

---OUTPUT-----------------------------------------------------------------------

 Cartesian coordinates (xcart) [bohr]
  0.00000000000000E+00  0.00000000000000E+00  6.48656959833678E-05
  4.33646675047133E+00  4.33646675047133E+00  2.79300177507852E+00
  2.61608940783125E+00  2.61608940783125E+00  1.41604313094156E-04
  6.05684409311141E+00  6.05684409311141E+00  1.41604313094156E-04
  1.72037734264008E+00  6.95255615830258E+00  2.79292503646141E+00
  6.95255615830258E+00  1.72037734264008E+00  2.79292503646141E+00
 Reduced coordinates (xred)
  0.00000000000000E+00  0.00000000000000E+00  1.16121210994818E-05
  5.00000000000000E-01  5.00000000000000E-01  4.99997330662968E-01
  3.01638356566081E-01  3.01638356566081E-01  2.53497076833940E-05
  6.98361643433919E-01  6.98361643433919E-01  2.53497076833940E-05
  1.98361643433919E-01  8.01638356566081E-01  4.99983593076384E-01
  8.01638356566081E-01  1.98361643433919E-01  4.99983593076384E-01
 Cartesian forces (fcart) [Ha/bohr]; max,rms= 1.86864E-02 1.24579E-02 (free atoms)
 -0.00000000000000E+00  5.78241158658936E-19 -1.35625380655244E-04
 -0.00000000000000E+00  5.78241158658936E-19  1.35625380655244E-04
 -1.86864091411637E-02 -1.86864091411637E-02 -1.46244452412560E-04
  1.86864091411637E-02  1.86864091411637E-02 -1.46244452412560E-04
  1.86864091411637E-02 -1.86864091411637E-02  1.46244452412560E-04
 -1.86864091411637E-02  1.86864091411637E-02  1.46244452412560E-04
 Reduced forces (fred)
 -0.00000000000000E+00 -5.01504711655698E-18  7.57607902453254E-04
 -0.00000000000000E+00 -5.01504711655698E-18 -7.57607902453254E-04
  1.62065983852719E-01  1.62065983852719E-01  8.16926391671069E-04
 -1.62065983852719E-01 -1.62065983852719E-01  8.16926391671069E-04
 -1.62065983852719E-01  1.62065983852719E-01 -8.16926391671069E-04
  1.62065983852719E-01 -1.62065983852719E-01 -8.16926391671069E-04
 Scale of Primitive Cell (acell) [bohr]
  8.67293350094266E+00  8.67293350094266E+00  5.58603337216852E+00
 Real space primitive translations (rprimd) [bohr]
  8.67293350094266E+00  0.00000000000000E+00  0.00000000000000E+00
  0.00000000000000E+00  8.67293350094266E+00  0.00000000000000E+00
  0.00000000000000E+00  0.00000000000000E+00  5.58603337216852E+00
 Unitary Cell Volume (ucvol) [Bohr^3]=  4.20180176255791E+02
 Angles (23,13,12)= [degrees]
  9.00000000000000E+01  9.00000000000000E+01  9.00000000000000E+01
 Lengths [Bohr]
  8.67293350094266E+00  8.67293350094266E+00  5.58603337216852E+00
 Stress tensor in cartesian coordinates (strten) [Ha/bohr^3]
 -3.14821426609718E-03  0.00000000000000E+00  0.00000000000000E+00
  0.00000000000000E+00 -3.14821426609719E-03  0.00000000000000E+00
  0.00000000000000E+00  0.00000000000000E+00 -4.99453206096970E-03
 Total energy (etotal) [Ha]= -6.85002306849525E+01

 Difference of energy with previous step (new-old):
           Absolute (Ha)= 3.08334E-01
           Relative     = 4.49111E-03

--- Iteration: ( 7/10) Internal Cycle: (1/1)
--------------------------------------------------------------------------------

---SELF-CONSISTENT-FIELD CONVERGENCE--------------------------------------------

     iter   Etot(hartree)      deltaE(h)  residm     vres2
 ETOT  1  -56.603099099290    -5.660E+01 1.404E-02 4.433E+03
 ETOT  2  -64.761481135771    -8.158E+00 1.152E-01 1.142E+03
 ETOT  3  -67.968355189730    -3.207E+00 2.127E-02 7.526E+00
 ETOT  4  -67.978794445444    -1.044E-02 9.321E-05 1.168E+00
 ETOT  5  -67.979807754965    -1.013E-03 2.712E-05 7.703E-02
 ETOT  6  -67.979998058655    -1.903E-04 1.252E-06 1.320E-03
 ETOT  7  -67.979999576719    -1.518E-06 7.679E-08 4.257E-05
 ETOT  8  -67.979999605510    -2.879E-08 3.449E-08 3.316E-06
 ETOT  9  -67.979999614257    -8.747E-09 8.406E-09 8.035E-07

 At SCF step    9, etot is converged : 
  for the second time, diff in etot=  8.747E-09 < toldfe=  1.000E-06

 Cartesian components of stress tensor (hartree/bohr^3)
  sigma(1 1)=  5.37784850E-03  sigma(3 2)=  0.00000000E+00
  sigma(2 2)=  5.37784850E-03  sigma(3 1)=  0.00000000E+00
  sigma(3 3)=  4.55434734E-03  sigma(2 1)=  0.00000000E+00

 Integrated electronic density in atomic spheres:
 ------------------------------------------------
 Atom  Sphere_radius  Integrated_density
    1        2.00000          0.45620658
    2        2.00000          0.47576529
    3        2.00000          5.54600902
    4        2.00000          5.54600902
    5        2.00000          5.58841574
    6        2.00000          5.58841574

---OUTPUT-----------------------------------------------------------------------

 Cartesian coordinates (xcart) [bohr]
  0.00000000000000E+00  0.00000000000000E+00  1.89769708393983E-04
  5.23924686156612E+00  5.23924686156612E+00  3.37434679977696E+00
  3.12050592586805E+00  3.12050592586805E+00 -3.17632476052513E-06
  7.35798779726419E+00  7.35798779726419E+00 -3.17632476052513E-06
  2.11874093569807E+00  8.35975278743416E+00  3.37453974581012E+00
  8.35975278743416E+00  2.11874093569807E+00  3.37453974581012E+00
 Reduced coordinates (xred)
  0.00000000000000E+00  0.00000000000000E+00  2.81183947225641E-05
  5.00000000000000E-01  5.00000000000000E-01  4.99980824389345E-01
  2.97801001586635E-01  2.97801001586635E-01 -4.70639672365809E-07
  7.02198998413365E-01  7.02198998413365E-01 -4.70639672365809E-07
  2.02198998413365E-01  7.97801001586635E-01  5.00009413423740E-01
  7.97801001586635E-01  2.02198998413365E-01  5.00009413423740E-01
 Cartesian forces (fcart) [Ha/bohr]; max,rms= 9.44202E-03 6.29489E-03 (free atoms)
  2.89120579329468E-19 -5.78241158658936E-19 -7.82226957297189E-06
  2.89120579329468E-19 -5.78241158658936E-19  7.82226957297189E-06
  9.44202290452375E-03  9.44202290452375E-03  1.08247603463067E-04
 -9.44202290452375E-03 -9.44202290452374E-03  1.08247603463067E-04
 -9.44202290452375E-03  9.44202290452375E-03 -1.08247603463067E-04
  9.44202290452374E-03 -9.44202290452374E-03 -1.08247603463067E-04
 Reduced forces (fred)
 -3.02954817573218E-18  6.05909635146437E-18  5.27921252435794E-05
 -3.02954817573218E-18  6.05909635146437E-18 -5.27921252435794E-05
 -9.89381777387229E-02 -9.89381777387229E-02 -7.30557926446966E-04
  9.89381777387229E-02  9.89381777387229E-02 -7.30557926446966E-04
  9.89381777387229E-02 -9.89381777387229E-02  7.30557926446966E-04
 -9.89381777387229E-02  9.89381777387229E-02  7.30557926446966E-04
 Scale of Primitive Cell (acell) [bohr]
  1.04784937231322E+01  1.04784937231322E+01  6.74895243012218E+00
 Real space primitive translations (rprimd) [bohr]
  1.04784937231322E+01  0.00000000000000E+00  0.00000000000000E+00
  0.00000000000000E+00  1.04784937231322E+01  0.00000000000000E+00
  0.00000000000000E+00  0.00000000000000E+00  6.74895243012218E+00
 Unitary Cell Volume (ucvol) [Bohr^3]=  7.41027085315955E+02
 Angles (23,13,12)= [degrees]
  9.00000000000000E+01  9.00000000000000E+01  9.00000000000000E+01
 Lengths [Bohr]
  1.04784937231322E+01  1.04784937231322E+01  6.74895243012218E+00
 Stress tensor in cartesian coordinates (strten) [Ha/bohr^3]
  5.37784849991127E-03  0.00000000000000E+00  0.00000000000000E+00
  0.00000000000000E+00  5.37784849991127E-03  0.00000000000000E+00
  0.00000000000000E+00  0.00000000000000E+00  4.55434734002161E-03
 Total energy (etotal) [Ha]= -6.79799996142567E+01

 Difference of energy with previous step (new-old):
           Absolute (Ha)= 5.20231E-01
           Relative     = 7.62354E-03

--- Iteration: ( 8/10) Internal Cycle: (1/1)
--------------------------------------------------------------------------------

---SELF-CONSISTENT-FIELD CONVERGENCE--------------------------------------------

     iter   Etot(hartree)      deltaE(h)  residm     vres2
 ETOT  1  -66.914258304271    -6.691E+01 5.563E-02 8.639E+02
 ETOT  2  -68.121170209209    -1.207E+00 4.284E-04 2.342E+02
 ETOT  3  -68.732254547464    -6.111E-01 1.054E-02 4.550E+00
 ETOT  4  -68.740810207703    -8.556E-03 1.416E-04 1.379E-01
 ETOT  5  -68.741122836402    -3.126E-04 3.114E-05 7.543E-04
 ETOT  6  -68.741123672333    -8.359E-07 6.201E-06 2.309E-05
 ETOT  7  -68.741123702202    -2.987E-08 1.773E-06 4.941E-06

 At SCF step    7, etot is converged : 
  for the second time, diff in etot=  2.987E-08 < toldfe=  1.000E-06

 Cartesian components of stress tensor (hartree/bohr^3)
  sigma(1 1)= -1.85918146E-03  sigma(3 2)=  0.00000000E+00
  sigma(2 2)= -1.85918146E-03  sigma(3 1)=  0.00000000E+00
  sigma(3 3)= -2.31578049E-03  sigma(2 1)=  0.00000000E+00

 Integrated electronic density in atomic spheres:
 ------------------------------------------------
 Atom  Sphere_radius  Integrated_density
    1        2.00000          0.67697597
    2        2.00000          0.72796325
    3        2.00000          5.97524990
    4        2.00000          5.97524990
    5        2.00000          6.02451966
    6        2.00000          6.02451966

---OUTPUT-----------------------------------------------------------------------

 Cartesian coordinates (xcart) [bohr]
  2.16097719184269E-19  4.92720514130523E-19 -5.42699505520784E-06
  4.60268565238991E+00  4.60268565238991E+00  2.96454049515035E+00
  2.75506170002413E+00  2.75506170002413E+00  4.05438686714180E-05
  6.45030960475569E+00  6.45030960475569E+00  4.05438686714180E-05
  1.84762395236578E+00  7.35774735241403E+00  2.96449452428662E+00
  7.35774735241404E+00  1.84762395236578E+00  2.96449452428662E+00
 Reduced coordinates (xred)
  2.34751768320374E-20  5.35253275307518E-20 -9.15336131185442E-07
  5.00000000000000E-01  5.00000000000000E-01  5.00009858120199E-01
  2.99288492425459E-01  2.99288492425459E-01  6.83827191944348E-06
  7.00711507574541E-01  7.00711507574541E-01  6.83827191944348E-06
  2.00711507574541E-01  7.99288492425459E-01  5.00002104512148E-01
  7.99288492425459E-01  2.00711507574541E-01  5.00002104512147E-01
 Cartesian forces (fcart) [Ha/bohr]; max,rms= 5.00752E-03 3.33836E-03 (free atoms)
 -0.00000000000000E+00 -0.00000000000000E+00  2.95510830481225E-06
 -0.00000000000000E+00 -0.00000000000000E+00 -2.95510830481224E-06
 -5.00752365128544E-03 -5.00752365128544E-03 -1.47091467698738E-05
  5.00752365128544E-03  5.00752365128544E-03 -1.47091467698738E-05
  5.00752365128544E-03 -5.00752365128544E-03  1.47091467698738E-05
 -5.00752365128544E-03  5.00752365128544E-03  1.47091467698738E-05
 Reduced forces (fred)
 -0.00000000000000E+00 -0.00000000000000E+00 -1.75207310313970E-05
  0.00000000000000E+00  0.00000000000000E+00  1.75207310313970E-05
  4.60961145275492E-02  4.60961145275492E-02  8.72100030434163E-05
 -4.60961145275492E-02 -4.60961145275492E-02  8.72100030434163E-05
 -4.60961145275492E-02  4.60961145275492E-02 -8.72100030434163E-05
  4.60961145275492E-02 -4.60961145275492E-02 -8.72100030434163E-05
 Scale of Primitive Cell (acell) [bohr]
  9.20537130477981E+00  9.20537130477981E+00  5.92896409341932E+00
 Real space primitive translations (rprimd) [bohr]
  9.20537130477981E+00  0.00000000000000E+00  0.00000000000000E+00
  0.00000000000000E+00  9.20537130477981E+00  0.00000000000000E+00
  0.00000000000000E+00  0.00000000000000E+00  5.92896409341932E+00
 Unitary Cell Volume (ucvol) [Bohr^3]=  5.02413663349458E+02
 Angles (23,13,12)= [degrees]
  9.00000000000000E+01  9.00000000000000E+01  9.00000000000000E+01
 Lengths [Bohr]
  9.20537130477981E+00  9.20537130477981E+00  5.92896409341932E+00
 Stress tensor in cartesian coordinates (strten) [Ha/bohr^3]
 -1.85918146449451E-03  0.00000000000000E+00  0.00000000000000E+00
  0.00000000000000E+00 -1.85918146449451E-03  0.00000000000000E+00
  0.00000000000000E+00  0.00000000000000E+00 -2.31578049152157E-03
 Total energy (etotal) [Ha]= -6.87411237022015E+01

 Difference of energy with previous step (new-old):
           Absolute (Ha)=-7.61124E-01
           Relative     =-1.11340E-02

--- Iteration: ( 9/10) Internal Cycle: (1/1)
--------------------------------------------------------------------------------

---SELF-CONSISTENT-FIELD CONVERGENCE--------------------------------------------

     iter   Etot(hartree)      deltaE(h)  residm     vres2
 ETOT  1  -68.640186336433    -6.864E+01 2.156E-05 6.154E+01
 ETOT  2  -68.724481131566    -8.429E-02 3.164E-05 2.475E+01
 ETOT  3  -68.793147086232    -6.867E-02 7.428E-04 1.050E-01
 ETOT  4  -68.793301816305    -1.547E-04 6.402E-06 2.932E-03
 ETOT  5  -68.793303891846    -2.076E-06 9.988E-07 2.688E-05
 ETOT  6  -68.793303935011    -4.317E-08 7.785E-08 7.237E-07
 ETOT  7  -68.793303935717    -7.065E-10 4.924E-08 1.052E-08

 At SCF step    7, etot is converged : 
  for the second time, diff in etot=  7.065E-10 < toldfe=  1.000E-06

 Cartesian components of stress tensor (hartree/bohr^3)
  sigma(1 1)= -2.35793737E-04  sigma(3 2)=  0.00000000E+00
  sigma(2 2)= -2.35793737E-04  sigma(3 1)=  0.00000000E+00
  sigma(3 3)= -1.63902416E-03  sigma(2 1)=  0.00000000E+00

 Integrated electronic density in atomic spheres:
 ------------------------------------------------
 Atom  Sphere_radius  Integrated_density
    1        2.00000          0.62936103
    2        2.00000          0.61971024
    3        2.00000          5.91293766
    4        2.00000          5.91293766
    5        2.00000          5.92419532
    6        2.00000          5.92419532

---OUTPUT-----------------------------------------------------------------------

 Cartesian coordinates (xcart) [bohr]
  3.21565960428702E-19  1.71470803100541E-19  3.25051633992585E-05
  4.73689535682609E+00  4.73689535682609E+00  3.05094543685647E+00
  2.83032177256014E+00  2.83032177256014E+00  4.96684677445608E-05
  6.64346894109206E+00  6.64346894109206E+00  4.96684677445608E-05
  1.90657358426596E+00  7.56721712938622E+00  3.05092827355212E+00
  7.56721712938622E+00  1.90657358426596E+00  3.05092827355212E+00
 Reduced coordinates (xred)
  3.39426920171785E-20  1.80994924084024E-20  5.32710255372302E-06
  5.00000000000000E-01  5.00000000000000E-01  5.00003615681514E-01
  2.98752828525282E-01  2.98752828525282E-01  8.13990743906228E-06
  7.01247171474719E-01  7.01247171474719E-01  8.13990743906227E-06
  2.01247171474718E-01  7.98752828525281E-01  5.00000802876629E-01
  7.98752828525281E-01  2.01247171474718E-01  5.00000802876628E-01
 Cartesian forces (fcart) [Ha/bohr]; max,rms= 2.29489E-03 1.53002E-03 (free atoms)
 -0.00000000000000E+00  2.89120579329468E-19 -3.72355134759974E-06
 -0.00000000000000E+00  2.89120579329468E-19  3.72355134759974E-06
 -2.29488578784930E-03 -2.29488578784930E-03 -3.64404087199945E-05
  2.29488578784930E-03  2.29488578784930E-03 -3.64404087199945E-05
  2.29488578784930E-03 -2.29488578784930E-03  3.64404087199945E-05
 -2.29488578784930E-03  2.29488578784930E-03  3.64404087199945E-05
 Reduced forces (fred)
 -0.00000000000000E+00 -2.73906785957725E-18  2.27205396852497E-05
 -0.00000000000000E+00 -2.73906785957725E-18 -2.27205396852497E-05
  2.17412676658191E-02  2.17412676658191E-02  2.22353789481931E-04
 -2.17412676658191E-02 -2.17412676658191E-02  2.22353789481931E-04
 -2.17412676658191E-02  2.17412676658191E-02 -2.22353789481931E-04
  2.17412676658191E-02 -2.17412676658191E-02 -2.22353789481931E-04
 Scale of Primitive Cell (acell) [bohr]
  9.47379071365219E+00  9.47379071365219E+00  6.10184674904395E+00
 Real space primitive translations (rprimd) [bohr]
  9.47379071365219E+00  0.00000000000000E+00  0.00000000000000E+00
  0.00000000000000E+00  9.47379071365219E+00  0.00000000000000E+00
  0.00000000000000E+00  0.00000000000000E+00  6.10184674904395E+00
 Unitary Cell Volume (ucvol) [Bohr^3]=  5.47657284697385E+02
 Angles (23,13,12)= [degrees]
  9.00000000000000E+01  9.00000000000000E+01  9.00000000000000E+01
 Lengths [Bohr]
  9.47379071365219E+00  9.47379071365219E+00  6.10184674904395E+00
 Stress tensor in cartesian coordinates (strten) [Ha/bohr^3]
 -2.35793736804664E-04  0.00000000000000E+00  0.00000000000000E+00
  0.00000000000000E+00 -2.35793736804664E-04  0.00000000000000E+00
  0.00000000000000E+00  0.00000000000000E+00 -1.63902416365670E-03
 Total energy (etotal) [Ha]= -6.87933039357173E+01

 Difference of energy with previous step (new-old):
           Absolute (Ha)=-5.21802E-02
           Relative     =-7.58795E-04

--- Iteration: (10/10) Internal Cycle: (1/1)
--------------------------------------------------------------------------------

---SELF-CONSISTENT-FIELD CONVERGENCE--------------------------------------------

     iter   Etot(hartree)      deltaE(h)  residm     vres2
 ETOT  1  -68.764624970609    -6.876E+01 1.176E-05 2.230E+01
 ETOT  2  -68.793619921305    -2.899E-02 6.150E-06 9.799E+00
 ETOT  3  -68.821912399320    -2.829E-02 2.815E-04 4.961E-02
 ETOT  4  -68.821989920352    -7.752E-05 1.498E-06 1.270E-03
 ETOT  5  -68.821990847813    -9.275E-07 2.122E-07 1.335E-05
 ETOT  6  -68.821990866746    -1.893E-08 1.462E-08 4.047E-07

 At SCF step    6, etot is converged : 
  for the second time, diff in etot=  1.893E-08 < toldfe=  1.000E-06

 Cartesian components of stress tensor (hartree/bohr^3)
  sigma(1 1)=  3.79324909E-04  sigma(3 2)=  0.00000000E+00
  sigma(2 2)=  3.79324909E-04  sigma(3 1)=  0.00000000E+00
  sigma(3 3)=  1.15421831E-04  sigma(2 1)=  0.00000000E+00

 Integrated electronic density in atomic spheres:
 ------------------------------------------------
 Atom  Sphere_radius  Integrated_density
    1        2.00000          0.59555844
    2        2.00000          0.55661193
    3        2.00000          5.89085412
    4        2.00000          5.89085412
    5        2.00000          5.81796454
    6        2.00000          5.81796454

---OUTPUT-----------------------------------------------------------------------

 Cartesian coordinates (xcart) [bohr]
  3.91340223853189E-19  2.88262334688485E-19  4.76159722664057E-05
  4.81962280222206E+00  4.81962280222206E+00  3.10421408937563E+00
  2.87563972702839E+00  2.87563972702839E+00 -4.88725761658568E-06
  6.76360587741575E+00  6.76360587741575E+00 -4.88725761658570E-06
  1.94398307519368E+00  7.69526252925044E+00  3.10426659260551E+00
  7.69526252925044E+00  1.94398307519368E+00  3.10426659260551E+00
 Reduced coordinates (xred)
  4.05986360252885E-20  2.99050720894157E-20  7.66958916883356E-06
  5.00000000000000E-01  5.00000000000000E-01  5.00001273194899E-01
  2.98326222303392E-01  2.98326222303392E-01 -7.87199258932495E-07
  7.01673777696610E-01  7.01673777696610E-01 -7.87199258932498E-07
  2.01673777696609E-01  7.98326222303390E-01  5.00009729983327E-01
  7.98326222303391E-01  2.01673777696609E-01  5.00009729983327E-01
 Cartesian forces (fcart) [Ha/bohr]; max,rms= 8.98045E-04 5.99354E-04 (free atoms)
  1.63676897050390E-31 -0.00000000000000E+00  1.53296073152947E-06
 -0.00000000000000E+00 -0.00000000000000E+00 -1.53296073152947E-06
  8.98044950368682E-04  8.98044950368682E-04  5.95289558715358E-05
 -8.98044950368682E-04 -8.98044950368682E-04  5.95289558715358E-05
 -8.98044950368682E-04  8.98044950368682E-04 -5.95289558715358E-05
  8.98044950368682E-04 -8.98044950368682E-04 -5.95289558715358E-05
 Reduced forces (fred)
 -1.57772181044202E-30 -0.00000000000000E+00 -9.51725236791237E-06
  0.00000000000000E+00  0.00000000000000E+00  9.51725236791236E-06
 -8.65647584043456E-03 -8.65647584043456E-03 -3.69580305988963E-04
  8.65647584043456E-03  8.65647584043456E-03 -3.69580305988963E-04
  8.65647584043456E-03 -8.65647584043456E-03  3.69580305988963E-04
 -8.65647584043456E-03  8.65647584043456E-03  3.69580305988962E-04
 Scale of Primitive Cell (acell) [bohr]
  9.63924560444413E+00  9.63924560444413E+00  6.20841236971334E+00
 Real space primitive translations (rprimd) [bohr]
  9.63924560444413E+00  0.00000000000000E+00  0.00000000000000E+00
  0.00000000000000E+00  9.63924560444413E+00  0.00000000000000E+00
  0.00000000000000E+00  0.00000000000000E+00  6.20841236971334E+00
 Unitary Cell Volume (ucvol) [Bohr^3]=  5.76854981902849E+02
 Angles (23,13,12)= [degrees]
  9.00000000000000E+01  9.00000000000000E+01  9.00000000000000E+01
 Lengths [Bohr]
  9.63924560444413E+00  9.63924560444413E+00  6.20841236971334E+00
 Stress tensor in cartesian coordinates (strten) [Ha/bohr^3]
  3.79324908882754E-04  0.00000000000000E+00  0.00000000000000E+00
  0.00000000000000E+00  3.79324908882752E-04  0.00000000000000E+00
  0.00000000000000E+00  0.00000000000000E+00  1.15421831024615E-04
 Total energy (etotal) [Ha]= -6.88219908667462E+01

 Difference of energy with previous step (new-old):
           Absolute (Ha)=-2.86869E-02
           Relative     =-4.16915E-04

 fconv : WARNING -
  ntime=   10 was not enough Broyd/MD steps to converge gradients: 
  max grad (force/stress) = 2.9136E-02 > tolmxf= 5.0000E-05 ha/bohr (free atoms)

