
.Version 8.6.3 of ABINIT 
.(sequential version, prepared for a x86_64_linux_gnu5.4 computer) 

.Copyright (C) 1998-2017 ABINIT group . 
 ABINIT comes with ABSOLUTELY NO WARRANTY.
 It is free software, and you are welcome to redistribute it
 under certain conditions (GNU General Public License,
 see ~abinit/COPYING or http://www.gnu.org/copyleft/gpl.txt).

 ABINIT is a project of the Universite Catholique de Louvain,
 Corning Inc. and other collaborators, see ~abinit/doc/developers/contributors.txt .
 Please read ~abinit/doc/users/acknowledgments.html for suggested
 acknowledgments of the ABINIT effort.
 For more information, see https://www.abinit.org .

.Starting date : Fri 20 Apr 2018.
- ( at 14h46 )
  
- input  file    -> sim3geom.in
- output file    -> sim3geom.out
- root for input  files -> sim3geom_i
- root for output files -> sim3geom_o


 Symmetries : space group Cm (#  8); Bravais mC (1-face-center monocl.)
================================================================================
 Values of the parameters that define the memory need of the present run
     intxc =       0    ionmov =       2      iscf =       7    lmnmax =       6
     lnmax =       6     mgfft =     135  mpssoang =       3    mqgrid =    4316
     natom =      30  nloc_mem =       1    nspden =       1   nspinor =       1
    nsppol =       1      nsym =       2    n1xccc =    2501    ntypat =       3
    occopt =       1   xclevel =       1
-    mband =         160        mffmem =           1         mkmem =          16
       mpw =        1927          nfft =      121500          nkpt =          16
================================================================================
P This job should need less than                     115.688 Mbytes of memory.
  Rough estimation (10% accuracy) of disk space for files :
_ WF disk file :     75.275 Mbytes ; DEN or POT disk file :      0.929 Mbytes.
================================================================================

--------------------------------------------------------------------------------
------------- Echo of variables that govern the present computation ------------
--------------------------------------------------------------------------------
-
- outvars: echo of selected default values                                      
-   iomode0 =  0 , fftalg0 =112 , wfoptalg0 =  0
-
- outvars: echo of global parameters not present in the input file              
-  max_nthreads =    0
-
 -outvars: echo values of preprocessed input variables --------
            acell      8.6808000000E+00  8.6808000000E+00  4.0830000000E+01 Bohr
              amu      4.78800000E+01  1.59994000E+01  1.06420000E+02
           diemac      1.20000000E+01
          dilatmx      1.05000000E+00
             ecut      5.00000000E+00 Hartree
           ecutsm      5.00000000E-01 Hartree
-          fftalg         112
           ionmov           2
           istwfk        0    0    0    0    0    7    0    0    5    0
                         0    0    0    6    0    4
              kpt     -1.25000000E-01  0.00000000E+00  0.00000000E+00
                      -2.50000000E-01  5.00000000E-01  0.00000000E+00
                      -1.25000000E-01  5.00000000E-01  5.00000000E-01
                      -3.75000000E-01  0.00000000E+00  0.00000000E+00
                      -2.50000000E-01  0.00000000E+00  5.00000000E-01
                       5.00000000E-01  5.00000000E-01  0.00000000E+00
                      -3.75000000E-01  5.00000000E-01  5.00000000E-01
                       3.75000000E-01  0.00000000E+00  0.00000000E+00
                       5.00000000E-01  0.00000000E+00  5.00000000E-01
                       2.50000000E-01  5.00000000E-01  0.00000000E+00
                       3.75000000E-01  5.00000000E-01  5.00000000E-01
                       1.25000000E-01  0.00000000E+00  0.00000000E+00
                       2.50000000E-01  0.00000000E+00  5.00000000E-01
                       0.00000000E+00  5.00000000E-01  0.00000000E+00
                       1.25000000E-01  5.00000000E-01  5.00000000E-01
                       0.00000000E+00  0.00000000E+00  5.00000000E-01
           kptopt           3
         kptrlatt        4   -1    1      0    2    0     -4   -1    1
          kptrlen      1.73616000E+01
P           mkmem          16
            natom          30
            nband         160
            ngfft          30      30     135
             nkpt          16
            nstep          20
             nsym           2
            ntime          10
           ntypat           3
              occ      2.000000  2.000000  2.000000  2.000000  2.000000  2.000000
                       2.000000  2.000000  2.000000  2.000000  2.000000  2.000000
                       2.000000  2.000000  2.000000  2.000000  2.000000  2.000000
                       2.000000  2.000000  2.000000  2.000000  2.000000  2.000000
                       2.000000  2.000000  2.000000  2.000000  2.000000  2.000000
                       2.000000  2.000000  2.000000  2.000000  2.000000  2.000000
                       2.000000  2.000000  2.000000  2.000000  2.000000  2.000000
                       2.000000  2.000000  2.000000  2.000000  2.000000  2.000000
                       2.000000  2.000000  2.000000  2.000000  2.000000  2.000000
                       2.000000  2.000000  2.000000  2.000000  2.000000  2.000000
                       2.000000  2.000000  2.000000  2.000000  2.000000  2.000000
                       2.000000  2.000000  2.000000  2.000000  2.000000  2.000000
                       2.000000  2.000000  2.000000  2.000000  2.000000  2.000000
                       2.000000  2.000000  2.000000  2.000000  2.000000  2.000000
                       2.000000  2.000000  2.000000  2.000000  2.000000  2.000000
                       2.000000  2.000000  2.000000  2.000000  2.000000  2.000000
                       2.000000  2.000000  2.000000  2.000000  2.000000  2.000000
                       2.000000  2.000000  2.000000  2.000000  2.000000  2.000000
                       2.000000  2.000000  2.000000  2.000000  2.000000  2.000000
                       2.000000  2.000000  2.000000  2.000000  2.000000  2.000000
                       2.000000  2.000000  2.000000  2.000000  2.000000  2.000000
                       2.000000  2.000000  2.000000  2.000000  2.000000  2.000000
                       2.000000  2.000000  2.000000  2.000000  2.000000  2.000000
                       2.000000  2.000000  2.000000  2.000000  2.000000  2.000000
                       2.000000  2.000000  2.000000  2.000000  2.000000  2.000000
                       2.000000  2.000000  2.000000  2.000000  2.000000  2.000000
                       0.000000  0.000000  0.000000  0.000000
          optcell           3
           shiftk      5.00000000E-01  0.00000000E+00  5.00000000E-01
          spgroup           8
           symrel      1  0  0   0  1  0   0  0  1       0  1  0   1  0  0   0  0  1
           toldfe      1.00000000E-04 Hartree
            typat      1  1  1  1  1  1  2  2  2  2  2  2  2  2  2  2  2  2  3  3
                       3  3  3  3  3  3  3  3  3  3
              wtk        0.06250    0.06250    0.06250    0.06250    0.06250    0.06250
                         0.06250    0.06250    0.06250    0.06250    0.06250    0.06250
                         0.06250    0.06250    0.06250    0.06250
           xangst      0.0000000000E+00  0.0000000000E+00  0.0000000000E+00
                       0.0000000000E+00  0.0000000000E+00  2.9586826909E+00
                       0.0000000000E+00  0.0000000000E+00  5.9173653819E+00
                       2.2968407562E+00  2.2968407562E+00  1.4793678043E+00
                       2.2968407562E+00  2.2968407562E+00  4.4379975776E+00
                       2.2968407562E+00  2.2968407562E+00  7.3967331862E+00
                       3.4452611342E+00  1.1484203781E+00  0.0000000000E+00
                       3.4452611342E+00  1.1484203781E+00  2.9586826909E+00
                       3.4452611342E+00  1.1484203781E+00  5.9173653819E+00
                       1.1484203781E+00  3.4452611342E+00  0.0000000000E+00
                       1.1484203781E+00  3.4452611342E+00  2.9586826909E+00
                       1.1484203781E+00  3.4452611342E+00  5.9173653819E+00
                       1.1484203781E+00  1.1484203781E+00  0.0000000000E+00
                       1.1484203781E+00  1.1484203781E+00  2.9586826909E+00
                       1.1484203781E+00  1.1484203781E+00  5.9173653819E+00
                       3.4452611342E+00  3.4452611342E+00  0.0000000000E+00
                       3.4452611342E+00  3.4452611342E+00  2.9586826909E+00
                       3.4452611342E+00  3.4452611342E+00  5.9173653819E+00
                       0.0000000000E+00  0.0000000000E+00  1.3295947790E+01
                       0.0000000000E+00  0.0000000000E+00  1.7186670298E+01
                       0.0000000000E+00  0.0000000000E+00  2.1077392807E+01
                       2.2968407562E+00  2.2968407562E+00  9.4052252814E+00
                       2.2968407562E+00  2.2968407562E+00  1.3295947790E+01
                       2.2968407562E+00  2.2968407562E+00  1.7186670298E+01
                       2.2968407562E+00  3.5147950195E-01  1.1350586536E+01
                       2.2968407562E+00  3.5147950195E-01  1.5241309044E+01
                       2.2968407562E+00  3.5147950195E-01  1.9132031553E+01
                       3.5147950195E-01  2.2968407562E+00  1.1350586536E+01
                       3.5147950195E-01  2.2968407562E+00  1.5241309044E+01
                       3.5147950195E-01  2.2968407562E+00  1.9132031553E+01
            xcart      0.0000000000E+00  0.0000000000E+00  0.0000000000E+00
                       0.0000000000E+00  0.0000000000E+00  5.5911000000E+00
                       0.0000000000E+00  0.0000000000E+00  1.1182200000E+01
                       4.3404000000E+00  4.3404000000E+00  2.7956000000E+00
                       4.3404000000E+00  4.3404000000E+00  8.3866000000E+00
                       4.3404000000E+00  4.3404000000E+00  1.3977800000E+01
                       6.5106000000E+00  2.1702000000E+00  0.0000000000E+00
                       6.5106000000E+00  2.1702000000E+00  5.5911000000E+00
                       6.5106000000E+00  2.1702000000E+00  1.1182200000E+01
                       2.1702000000E+00  6.5106000000E+00  0.0000000000E+00
                       2.1702000000E+00  6.5106000000E+00  5.5911000000E+00
                       2.1702000000E+00  6.5106000000E+00  1.1182200000E+01
                       2.1702000000E+00  2.1702000000E+00  0.0000000000E+00
                       2.1702000000E+00  2.1702000000E+00  5.5911000000E+00
                       2.1702000000E+00  2.1702000000E+00  1.1182200000E+01
                       6.5106000000E+00  6.5106000000E+00  0.0000000000E+00
                       6.5106000000E+00  6.5106000000E+00  5.5911000000E+00
                       6.5106000000E+00  6.5106000000E+00  1.1182200000E+01
                       0.0000000000E+00  0.0000000000E+00  2.5125700000E+01
                       0.0000000000E+00  0.0000000000E+00  3.2478100000E+01
                       0.0000000000E+00  0.0000000000E+00  3.9830500000E+01
                       4.3404000000E+00  4.3404000000E+00  1.7773300000E+01
                       4.3404000000E+00  4.3404000000E+00  2.5125700000E+01
                       4.3404000000E+00  4.3404000000E+00  3.2478100000E+01
                       4.3404000000E+00  6.6420000000E-01  2.1449500000E+01
                       4.3404000000E+00  6.6420000000E-01  2.8801900000E+01
                       4.3404000000E+00  6.6420000000E-01  3.6154300000E+01
                       6.6420000000E-01  4.3404000000E+00  2.1449500000E+01
                       6.6420000000E-01  4.3404000000E+00  2.8801900000E+01
                       6.6420000000E-01  4.3404000000E+00  3.6154300000E+01
             xred      0.0000000000E+00  0.0000000000E+00  0.0000000000E+00
                       0.0000000000E+00  0.0000000000E+00  1.3693607641E-01
                       0.0000000000E+00  0.0000000000E+00  2.7387215283E-01
                       5.0000000000E-01  5.0000000000E-01  6.8469262797E-02
                       5.0000000000E-01  5.0000000000E-01  2.0540289003E-01
                       5.0000000000E-01  5.0000000000E-01  3.4234141563E-01
                       7.5000000000E-01  2.5000000000E-01  0.0000000000E+00
                       7.5000000000E-01  2.5000000000E-01  1.3693607641E-01
                       7.5000000000E-01  2.5000000000E-01  2.7387215283E-01
                       2.5000000000E-01  7.5000000000E-01  0.0000000000E+00
                       2.5000000000E-01  7.5000000000E-01  1.3693607641E-01
                       2.5000000000E-01  7.5000000000E-01  2.7387215283E-01
                       2.5000000000E-01  2.5000000000E-01  0.0000000000E+00
                       2.5000000000E-01  2.5000000000E-01  1.3693607641E-01
                       2.5000000000E-01  2.5000000000E-01  2.7387215283E-01
                       7.5000000000E-01  7.5000000000E-01  0.0000000000E+00
                       7.5000000000E-01  7.5000000000E-01  1.3693607641E-01
                       7.5000000000E-01  7.5000000000E-01  2.7387215283E-01
                       0.0000000000E+00  0.0000000000E+00  6.1537349988E-01
                       0.0000000000E+00  0.0000000000E+00  7.9544697526E-01
                       0.0000000000E+00  0.0000000000E+00  9.7552045065E-01
                       5.0000000000E-01  5.0000000000E-01  4.3530002449E-01
                       5.0000000000E-01  5.0000000000E-01  6.1537349988E-01
                       5.0000000000E-01  5.0000000000E-01  7.9544697526E-01
                       5.0000000000E-01  7.6513685375E-02  5.2533676218E-01
                       5.0000000000E-01  7.6513685375E-02  7.0541023757E-01
                       5.0000000000E-01  7.6513685375E-02  8.8548371296E-01
                       7.6513685375E-02  5.0000000000E-01  5.2533676218E-01
                       7.6513685375E-02  5.0000000000E-01  7.0541023757E-01
                       7.6513685375E-02  5.0000000000E-01  8.8548371296E-01
            znucl       22.00000    8.00000   46.00000

================================================================================

 chkinp: Checking input parameters for consistency.

================================================================================
== DATASET  1 ==================================================================
-   nproc =    1

 Exchange-correlation functional for the present dataset will be:
  LDA: new Teter (4/93) with spin-polarized option - ixc=1
 Citation for XC functional:
  S. Goedecker, M. Teter, J. Huetter, PRB 54, 1703 (1996)

 Real(R)+Recip(G) space primitive vectors, cartesian coordinates (Bohr,Bohr^-1):
 R(1)=  8.6808000  0.0000000  0.0000000  G(1)=  0.1151968  0.0000000  0.0000000
 R(2)=  0.0000000  8.6808000  0.0000000  G(2)=  0.0000000  0.1151968  0.0000000
 R(3)=  0.0000000  0.0000000 40.8300000  G(3)=  0.0000000  0.0000000  0.0244918
 Unit cell volume ucvol=  3.0767973E+03 bohr^3
 Angles (23,13,12)=  9.00000000E+01  9.00000000E+01  9.00000000E+01 degrees

 getcut: wavevector=  0.0000  0.0000  0.0000  ngfft=  30  30 135
         ecut(hartree)=      5.513   => boxcut(ratio)=   3.10517

 getcut : COMMENT -
  Note that boxcut > 2.2 ; recall that boxcut=Gcut(box)/Gcut(sphere) = 2
  is sufficient for exact treatment of convolution.
  Such a large boxcut is a waste : you could raise ecut
  e.g. ecut=   13.288030 Hartrees makes boxcut=2


--- Pseudopotential description ------------------------------------------------
- pspini: atom type   1  psp file is ../../../Psps_for_tests/22ti.pspnc
- pspatm: opening atomic psp file    ../../../Psps_for_tests/22ti.pspnc
-  Troullier-Martins psp for element  Ti        Thu Oct 27 17:33:40 EDT 1994
- 22.00000   4.00000    940714                znucl, zion, pspdat
    1    1    2    0      2001   0.00000      pspcod,pspxc,lmax,lloc,mmax,r2well
    0   5.166   8.509    0   2.4203472        l,e99.0,e99.9,nproj,rcpsp
   0.00000000   0.00000000   0.00000000   0.00000000     rms, ekb1, ekb2, epsatm
    1   2.285   3.944    1   2.9934301        l,e99.0,e99.9,nproj,rcpsp
   0.00000000   0.00000000   0.00000000   0.00000000     rms, ekb1, ekb2, epsatm
    2  20.947  27.069    1   1.9326638        l,e99.0,e99.9,nproj,rcpsp
   0.00000000   0.00000000   0.00000000   0.00000000     rms, ekb1, ekb2, epsatm
    2.82741504495369    0.09256629068341    1.82586447305099   rchrg,fchrg,qchrg
  pspatm : epsatm=   66.67453488
         --- l  ekb(1:nproj) -->
             1    0.915537
             2   -8.015692
 pspatm: atomic psp has been read  and splines computed

- pspini: atom type   2  psp file is ../../../Psps_for_tests/8o.pspnc
- pspatm: opening atomic psp file    ../../../Psps_for_tests/8o.pspnc
-  Troullier-Martins psp for element  O         Thu Oct 27 17:29:57 EDT 1994
-  8.00000   6.00000    940714                znucl, zion, pspdat
    1    1    1    1      2001   0.00000      pspcod,pspxc,lmax,lloc,mmax,r2well
    0   5.480  16.893    1   1.4482335        l,e99.0,e99.9,nproj,rcpsp
   0.00000000   0.00000000   0.00000000   0.00000000     rms, ekb1, ekb2, epsatm
    1  20.911  28.075    0   1.4482335        l,e99.0,e99.9,nproj,rcpsp
   0.00000000   0.00000000   0.00000000   0.00000000     rms, ekb1, ekb2, epsatm
    0.56990156784787    3.95561236318184    0.63894027514378   rchrg,fchrg,qchrg
  pspatm : epsatm=    1.57752239
         --- l  ekb(1:nproj) -->
             0    5.670783
 pspatm: atomic psp has been read  and splines computed

- pspini: atom type   3  psp file is ../../../Psps_for_tests/Pd.psp8
- pspatm: opening atomic psp file    ../../../Psps_for_tests/Pd.psp8
- Pd    ONCVPSP-3.2.3.1  r_core=   1.41052   1.46191   1.55175
- 46.00000  18.00000    170510                znucl, zion, pspdat
    8   11    2    4       600   0.00000      pspcod,pspxc,lmax,lloc,mmax,r2well
    5.99000000000000    7.00000000000000    0.00000000000000   rchrg,fchrg,qchrg
     nproj     2     2     2
     extension_switch     1
  pspatm : epsatm=   26.09224486
         --- l  ekb(1:nproj) -->
             0    7.845850   -2.282160
             1    3.261104   -0.686948
             2   -1.134855   -0.401224
 pspatm: atomic psp has been read  and splines computed

   2.28410338E+05                                ecore*ucvol(ha*bohr**3)
--------------------------------------------------------------------------------

_setup2: Arith. and geom. avg. npw (full set) are    1899.375    1899.247

================================================================================

=== [ionmov= 2] Broyden-Fletcher-Goldfard-Shanno method (forces)            
================================================================================

--- Iteration: ( 1/10) Internal Cycle: (1/1)
--------------------------------------------------------------------------------

---SELF-CONSISTENT-FIELD CONVERGENCE--------------------------------------------

     iter   Etot(hartree)      deltaE(h)  residm     vres2
 ETOT  1  -1465.3080155209    -1.465E+03 4.351E-02 4.466E+06
 ETOT  2  -111.42474619769     1.354E+03 1.351E-01 6.413E+07
 ETOT  3  -1483.2871999938    -1.372E+03 4.604E-01 4.926E+06
 ETOT  4  -1591.4853553725    -1.082E+02 1.045E-01 2.759E+05
 ETOT  5  -1564.1632003971     2.732E+01 2.798E-02 2.015E+06
 ETOT  6  -1599.2289449520    -3.507E+01 7.618E-03 5.956E+05
 ETOT  7  -1606.9170415339    -7.688E+00 1.203E-02 2.858E+05
 ETOT  8  -1612.5586947590    -5.642E+00 4.069E-03 5.916E+04
 ETOT  9  -1613.4172518236    -8.586E-01 3.783E-02 2.287E+04
 ETOT 10  -1607.6297892453     5.787E+00 2.565E-02 2.694E+05
 ETOT 11  -1613.7155401377    -6.086E+00 2.897E-03 2.017E+04
 ETOT 12  -1614.1339710850    -4.184E-01 6.341E-03 2.909E+03
 ETOT 13  -1614.2112470270    -7.728E-02 3.472E-04 9.963E+02
 ETOT 14  -1614.1644792309     4.677E-02 1.194E-03 2.683E+03
 ETOT 15  -1614.2178436241    -5.336E-02 2.201E-04 1.066E+03
 ETOT 16  -1614.2417404890    -2.390E-02 3.368E-04 1.461E+02
 ETOT 17  -1614.2430234307    -1.283E-03 7.326E-05 1.157E+02
 ETOT 18  -1614.2463257134    -3.302E-03 2.416E-04 1.860E+01
 ETOT 19  -1614.2467619021    -4.362E-04 5.569E-05 1.229E+01
 ETOT 20  -1614.2470719332    -3.100E-04 1.276E-04 1.374E+00

 Cartesian components of stress tensor (hartree/bohr^3)
  sigma(1 1)= -3.92334816E-03  sigma(3 2)=  2.36845412E-05
  sigma(2 2)= -3.92334816E-03  sigma(3 1)=  2.36845412E-05
  sigma(3 3)= -2.37982523E-02  sigma(2 1)=  1.74230392E-04


 scprqt:  WARNING -
  nstep=   20 was not enough SCF cycles to converge;
  maximum energy difference=  3.100E-04 exceeds toldfe=  1.000E-04

 Integrated electronic density in atomic spheres:
 ------------------------------------------------
 Atom  Sphere_radius  Integrated_density
    1        2.00000         12.53711625
    2        2.00000          1.95151439
    3        2.00000          1.88120072
    4        2.00000          0.67964007
    5        2.00000          0.65133863
    6        2.00000          0.85119871
    7        2.00000          6.77250188
    8        2.00000          6.02662919
    9        2.00000          6.02262949
   10        2.00000          6.77250188
   11        2.00000          6.02662919
   12        2.00000          6.02262949
   13        2.00000          6.78327118
   14        2.00000          6.02655532
   15        2.00000          6.02432401
   16        2.00000          6.76635808
   17        2.00000          6.02702866
   18        2.00000          6.02094943
   19        2.00000         13.36016426
   20        2.00000         13.29471309
   21        2.00000         14.06281882
   22        2.00000         13.68623646
   23        2.00000         13.33532992
   24        2.00000         13.28557148
   25        2.00000         13.34001028
   26        2.00000         13.32246953
   27        2.00000         13.31497933
   28        2.00000         13.34001028
   29        2.00000         13.32246953
   30        2.00000         13.31497933

---OUTPUT-----------------------------------------------------------------------

 Cartesian coordinates (xcart) [bohr]
  0.00000000000000E+00  0.00000000000000E+00  0.00000000000000E+00
  0.00000000000000E+00  0.00000000000000E+00  5.59110000000000E+00
  0.00000000000000E+00  0.00000000000000E+00  1.11822000000000E+01
  4.34040000000000E+00  4.34040000000000E+00  2.79560000000000E+00
  4.34040000000000E+00  4.34040000000000E+00  8.38660000000000E+00
  4.34040000000000E+00  4.34040000000000E+00  1.39778000000000E+01
  6.51060000000000E+00  2.17020000000000E+00  0.00000000000000E+00
  6.51060000000000E+00  2.17020000000000E+00  5.59110000000000E+00
  6.51060000000000E+00  2.17020000000000E+00  1.11822000000000E+01
  2.17020000000000E+00  6.51060000000000E+00  0.00000000000000E+00
  2.17020000000000E+00  6.51060000000000E+00  5.59110000000000E+00
  2.17020000000000E+00  6.51060000000000E+00  1.11822000000000E+01
  2.17020000000000E+00  2.17020000000000E+00  0.00000000000000E+00
  2.17020000000000E+00  2.17020000000000E+00  5.59110000000000E+00
  2.17020000000000E+00  2.17020000000000E+00  1.11822000000000E+01
  6.51060000000000E+00  6.51060000000000E+00  0.00000000000000E+00
  6.51060000000000E+00  6.51060000000000E+00  5.59110000000000E+00
  6.51060000000000E+00  6.51060000000000E+00  1.11822000000000E+01
  0.00000000000000E+00  0.00000000000000E+00  2.51257000000000E+01
  0.00000000000000E+00  0.00000000000000E+00  3.24781000000000E+01
  0.00000000000000E+00  0.00000000000000E+00  3.98305000000000E+01
  4.34040000000000E+00  4.34040000000000E+00  1.77733000000000E+01
  4.34040000000000E+00  4.34040000000000E+00  2.51257000000000E+01
  4.34040000000000E+00  4.34040000000000E+00  3.24781000000000E+01
  4.34040000000000E+00  6.64200000000000E-01  2.14495000000000E+01
  4.34040000000000E+00  6.64200000000000E-01  2.88019000000000E+01
  4.34040000000000E+00  6.64200000000000E-01  3.61543000000000E+01
  6.64200000000000E-01  4.34040000000000E+00  2.14495000000000E+01
  6.64200000000000E-01  4.34040000000000E+00  2.88019000000000E+01
  6.64200000000000E-01  4.34040000000000E+00  3.61543000000000E+01
 Reduced coordinates (xred)
  0.00000000000000E+00  0.00000000000000E+00  0.00000000000000E+00
  0.00000000000000E+00  0.00000000000000E+00  1.36936076414401E-01
  0.00000000000000E+00  0.00000000000000E+00  2.73872152828802E-01
  5.00000000000000E-01  5.00000000000000E-01  6.84692627969630E-02
  5.00000000000000E-01  5.00000000000000E-01  2.05402890031839E-01
  5.00000000000000E-01  5.00000000000000E-01  3.42341415625765E-01
  7.50000000000000E-01  2.50000000000000E-01  0.00000000000000E+00
  7.50000000000000E-01  2.50000000000000E-01  1.36936076414401E-01
  7.50000000000000E-01  2.50000000000000E-01  2.73872152828802E-01
  2.50000000000000E-01  7.50000000000000E-01  0.00000000000000E+00
  2.50000000000000E-01  7.50000000000000E-01  1.36936076414401E-01
  2.50000000000000E-01  7.50000000000000E-01  2.73872152828802E-01
  2.50000000000000E-01  2.50000000000000E-01  0.00000000000000E+00
  2.50000000000000E-01  2.50000000000000E-01  1.36936076414401E-01
  2.50000000000000E-01  2.50000000000000E-01  2.73872152828802E-01
  7.50000000000000E-01  7.50000000000000E-01  0.00000000000000E+00
  7.50000000000000E-01  7.50000000000000E-01  1.36936076414401E-01
  7.50000000000000E-01  7.50000000000000E-01  2.73872152828802E-01
  0.00000000000000E+00  0.00000000000000E+00  6.15373499877541E-01
  0.00000000000000E+00  0.00000000000000E+00  7.95446975263287E-01
  0.00000000000000E+00  0.00000000000000E+00  9.75520450649033E-01
  5.00000000000000E-01  5.00000000000000E-01  4.35300024491795E-01
  5.00000000000000E-01  5.00000000000000E-01  6.15373499877541E-01
  5.00000000000000E-01  5.00000000000000E-01  7.95446975263287E-01
  5.00000000000000E-01  7.65136853746199E-02  5.25336762184668E-01
  5.00000000000000E-01  7.65136853746199E-02  7.05410237570414E-01
  5.00000000000000E-01  7.65136853746199E-02  8.85483712956160E-01
  7.65136853746199E-02  5.00000000000000E-01  5.25336762184668E-01
  7.65136853746199E-02  5.00000000000000E-01  7.05410237570414E-01
  7.65136853746199E-02  5.00000000000000E-01  8.85483712956160E-01
 Cartesian forces (fcart) [Ha/bohr]; max,rms= 7.28361E+01 1.08079E+01 (free atoms)
  8.41379432743627E-03  8.41379432743627E-03  7.20971550184799E+01
  5.23903508175175E-04  5.23903508175175E-04 -2.25536470040541E-02
 -2.04267965503294E-05 -2.04267965503298E-05  4.36022206895358E-02
 -1.83640468218404E-03 -1.83640468218404E-03 -2.69509850621322E-03
 -1.52239250446718E-04 -1.52239250446719E-04 -7.36121456093979E-04
 -1.06759284717932E-03 -1.06759284717932E-03 -4.95923959399648E-01
 -7.43377214128022E-01  7.50190742825471E-01  3.13629932913366E-02
 -5.26581441982883E-01  5.26231010869469E-01  8.07833403481779E-03
 -5.21751209046862E-01  5.22469624497854E-01 -6.82948701150606E-03
  7.50190742825471E-01 -7.43377214128022E-01  3.13629932913366E-02
  5.26231010869469E-01 -5.26581441982883E-01  8.07833403481779E-03
  5.22469624497854E-01 -5.21751209046862E-01 -6.82948701150606E-03
  7.48304973269484E-01  7.48304973269484E-01  4.46978961502852E-02
  5.26219455048377E-01  5.26219455048377E-01  8.11044893494594E-03
  5.21789427312913E-01  5.21789427312913E-01 -3.86564081648173E-03
 -7.44813458327935E-01 -7.44813458327935E-01  1.86809621509357E-02
 -5.26422283386334E-01 -5.26422283386334E-01  7.62892931987251E-03
 -5.22181192947190E-01 -5.22181192947190E-01 -9.93490572490730E-03
  1.64878115098041E-02  1.64878115098041E-02 -4.30415477334826E-05
  1.27031448168231E-02  1.27031448168231E-02  4.49882220486536E-02
  1.14205505711942E-02  1.14205505711942E-02 -7.28361310636319E+01
  3.88505571720836E-02  3.88505571720836E-02  7.83650857602271E-01
  5.60463061457682E-03  5.60463061457682E-03 -9.54323747962468E-03
  2.28855807045811E-02  2.28855807045811E-02 -9.18527031219357E-03
 -1.39836507311754E-02 -3.41144052561038E-02  1.20212770307694E-01
  8.72982073092372E-03 -3.55907476686153E-02 -6.53669341937337E-03
  4.54147259682764E-03 -5.34742333245124E-02  2.47607980482493E-02
 -3.41144052561038E-02 -1.39836507311754E-02  1.20212770307694E-01
 -3.55907476686153E-02  8.72982073092372E-03 -6.53669341937337E-03
 -5.34742333245124E-02  4.54147259682764E-03  2.47607980482493E-02
 Reduced forces (fred)
 -7.30384657976088E-02 -7.30384657976088E-02 -2.94372683940453E+03
 -4.54790157376706E-03 -4.54790157376705E-03  9.20865407175528E-01
  1.77320935494100E-04  1.77320935494103E-04 -1.78027867075375E+00
  1.59414617651032E-02  1.59414617651032E-02  1.10040872008686E-01
  1.32155848527787E-03  1.32155848527788E-03  3.00558390523172E-02
  9.26755998779422E-03  9.26755998779423E-03  2.02485752622876E+01
  6.45310892040253E+00 -6.51225580031935E+00 -1.28055101608527E+00
  4.57114818156501E+00 -4.56810615915569E+00 -3.29838378641610E-01
  4.52921789549400E+00 -4.53545431634097E+00  2.78847954679792E-01
 -6.51225580031935E+00  6.45310892040253E+00 -1.28055101608527E+00
 -4.56810615915569E+00  4.57114818156501E+00 -3.29838378641610E-01
 -4.53545431634097E+00  4.52921789549400E+00  2.78847954679792E-01
 -6.49588581195774E+00 -6.49588581195774E+00 -1.82501509981614E+00
 -4.56800584538395E+00 -4.56800584538395E+00 -3.31149630013843E-01
 -4.52954966061794E+00 -4.52954966061794E+00  1.57834114536949E-01
  6.46557666905314E+00  6.46557666905314E+00 -7.62743684622706E-01
  4.56976655762009E+00  4.56976655762009E+00 -3.11489184130395E-01
  4.53295049973597E+00  4.53295049973597E+00  4.05642200747965E-01
 -1.43127394154307E-01 -1.43127394154307E-01  1.75738639395810E-03
 -1.10273459525878E-01 -1.10273459525878E-01 -1.83686910624653E+00
 -9.91395153984229E-02 -9.91395153984229E-02  2.97389923132809E+03
 -3.37253916699423E-01 -3.37253916699423E-01 -3.19964645159007E+01
 -4.86526774390185E-02 -4.86526774390185E-02  3.89650386293076E-01
 -1.98665148980328E-01 -1.98665148980328E-01  3.75034586846864E-01
  1.21389275267187E-01  2.96140329147186E-01 -4.90828741166313E+00
 -7.57818278010026E-02  3.08956162361715E-01  2.66893192313015E-01
 -3.94236153185413E-02  4.64199124643427E-01 -1.01098338431002E+00
  2.96140329147186E-01  1.21389275267187E-01 -4.90828741166313E+00
  3.08956162361715E-01 -7.57818278010026E-02  2.66893192313015E-01
  4.64199124643427E-01 -3.94236153185413E-02 -1.01098338431002E+00
 Scale of Primitive Cell (acell) [bohr]
  8.68080000000000E+00  8.68080000000000E+00  4.08300000000000E+01
 Real space primitive translations (rprimd) [bohr]
  8.68080000000000E+00  0.00000000000000E+00  0.00000000000000E+00
  0.00000000000000E+00  8.68080000000000E+00  0.00000000000000E+00
  0.00000000000000E+00  0.00000000000000E+00  4.08300000000000E+01
 Unitary Cell Volume (ucvol) [Bohr^3]=  3.07679726517120E+03
 Angles (23,13,12)= [degrees]
  9.00000000000000E+01  9.00000000000000E+01  9.00000000000000E+01
 Lengths [Bohr]
  8.68080000000000E+00  8.68080000000000E+00  4.08300000000000E+01
 Stress tensor in cartesian coordinates (strten) [Ha/bohr^3]
 -3.92334815875094E-03  1.74230392182118E-04  2.36845411835690E-05
  1.74230392182118E-04 -3.92334815875094E-03  2.36845411835690E-05
  2.36845411835690E-05  2.36845411835690E-05 -2.37982523352878E-02
 Total energy (etotal) [Ha]= -1.61424707193322E+03

--- Iteration: ( 2/10) Internal Cycle: (1/1)
--------------------------------------------------------------------------------

---SELF-CONSISTENT-FIELD CONVERGENCE--------------------------------------------

     iter   Etot(hartree)      deltaE(h)  residm     vres2
 ETOT  1   10415.870260779     1.042E+04 4.089E+07 5.763E+08
 ETOT  2   6572.7423211100    -3.843E+03 6.102E+06 3.743E+08
 ETOT  3  -835.57969278226    -7.408E+03 9.226E+05 2.258E+07
 ETOT  4  -347.37855029036     4.882E+02 7.641E+04 5.163E+07
 ETOT  5  -125.53481657332     2.218E+02 7.896E+02 6.298E+07
 ETOT  6  -1336.1876942950    -1.211E+03 7.747E+01 9.517E+06
 ETOT  7  -1018.7133371555     3.175E+02 2.556E+00 2.633E+07
 ETOT  8  -1047.6400368261    -2.893E+01 1.107E-01 2.534E+07
 ETOT  9  -1420.7540713692    -3.731E+02 8.048E-02 9.069E+06
 ETOT 10  -1116.9030052599     3.039E+02 4.873E-01 2.239E+07
 ETOT 11  -1515.8377193257    -3.989E+02 1.473E-01 4.685E+06
 ETOT 12  -1586.4392967391    -7.060E+01 2.323E-02 1.739E+06
 ETOT 13  -1623.5878393867    -3.715E+01 2.840E-02 8.041E+04
 ETOT 14  -1625.4297206690    -1.842E+00 1.861E-02 3.489E+04
 ETOT 15  -1621.3391465098     4.091E+00 3.389E-03 2.336E+05
 ETOT 16  -1617.0828779769     4.256E+00 1.061E-02 4.012E+05
 ETOT 17  -1611.8886252365     5.194E+00 9.802E-04 6.239E+05
 ETOT 18  -1621.7099550181    -9.821E+00 2.500E-03 2.124E+05
 ETOT 19  -1626.2201369382    -4.510E+00 2.723E-02 3.068E+04
 ETOT 20  -1626.6796143039    -4.595E-01 2.378E-03 8.717E+03

 Cartesian components of stress tensor (hartree/bohr^3)
  sigma(1 1)= -3.97186229E-03  sigma(3 2)=  4.39787281E-05
  sigma(2 2)= -3.97186229E-03  sigma(3 1)=  4.39787281E-05
  sigma(3 3)= -2.97819283E-02  sigma(2 1)=  2.92689069E-04


 scprqt:  WARNING -
  nstep=   20 was not enough SCF cycles to converge;
  maximum energy difference=  4.595E-01 exceeds toldfe=  1.000E-04

 Integrated electronic density in atomic spheres:
 ------------------------------------------------
 Atom  Sphere_radius  Integrated_density
    1        2.00000          9.59680424
    2        2.00000          4.47848352
    3        2.00000          1.29618194
    4        2.00000          1.18516580
    5        2.00000          0.99862516
    6        2.00000          1.18676441
    7        2.00000          6.47645951
    8        2.00000          6.36810008
    9        2.00000          6.48767181
   10        2.00000          6.47645951
   11        2.00000          6.36810008
   12        2.00000          6.48767181
   13        2.00000          6.49351339
   14        2.00000          6.38159300
   15        2.00000          6.49634396
   16        2.00000          6.46513711
   17        2.00000          6.37897877
   18        2.00000          6.48722845
   19        2.00000         13.22427884
   20        2.00000         13.66111364
   21        2.00000         14.53361259
   22        2.00000         13.53821088
   23        2.00000         13.39663051
   24        2.00000         13.17573266
   25        2.00000         13.39316770
   26        2.00000         13.44143579
   27        2.00000         13.37684616
   28        2.00000         13.39316770
   29        2.00000         13.44143579
   30        2.00000         13.37684616

---OUTPUT-----------------------------------------------------------------------

 Cartesian coordinates (xcart) [bohr]
 -2.00853686080248E-03 -2.00853686080247E-03  7.49922718727645E+01
 -2.78496199168209E-04 -2.78496199168202E-04  5.79215566154844E+00
 -1.61589803312513E-03 -1.61589803312512E-03  1.16765833434312E+01
  4.24906121279949E+00  4.24906121279949E+00  2.90382267996386E+00
  4.24991567852142E+00  4.24991567852141E+00  8.72137094422809E+00
  4.24829466140564E+00  4.24829466140564E+00  1.40220178335644E+01
  5.65174840682655E+00  2.85743016533379E+00  3.13873445999532E-02
  5.86376103365695E+00  2.63681764023209E+00  5.82278380691823E+00
  5.86770832165755E+00  2.63233179336830E+00  1.16228923157241E+01
  2.85743016533379E+00  5.65174840682655E+00  3.13873445999532E-02
  2.63681764023209E+00  5.86376103365695E+00  5.82278380691823E+00
  2.63233179336830E+00  5.86770832165755E+00  1.16228923157241E+01
  2.85855841999380E+00  2.85855841999380E+00  4.56629708138541E-02
  2.64024444516251E+00  2.64024444516251E+00  5.82328458714540E+00
  2.63511225772964E+00  2.63511225772964E+00  1.16264439647942E+01
  5.64736627305111E+00  5.64736627305111E+00  1.77917512266860E-02
  5.86047885936210E+00  5.86047885936210E+00  5.82184893830088E+00
  5.86384049721502E+00  5.86384049721502E+00  1.16191937248301E+01
  1.25772530082388E-02  1.25772530082389E-02  2.61345932339426E+01
  7.81867665626737E-03  7.81867665626738E-03  3.38290753756605E+01
  1.58781663515214E-02  1.58781663515214E-02 -3.43310019721313E+01
  4.28667148670574E+00  4.28667148670574E+00  1.93008750119107E+01
  4.25317588968730E+00  4.25317588968730E+00  2.61234805580858E+01
  4.26905663576483E+00  4.26905663576483E+00  3.37714895217350E+01
  4.23835967203551E+00  6.10212911783880E-01  2.24351573049505E+01
  4.25960473388479E+00  6.07714374732324E-01  2.99509566308728E+01
  4.25446704156937E+00  5.89134170874855E-01  3.76311555715113E+01
  6.10212911783880E-01  4.23835967203551E+00  2.24351573049505E+01
  6.07714374732324E-01  4.25960473388479E+00  2.99509566308728E+01
  5.89134170874855E-01  4.25446704156937E+00  3.76311555715113E+01
 Reduced coordinates (xred)
  9.69241812671215E-04  9.69241812671216E-04  1.76578875871859E+00
  6.03519846298941E-05  6.03519846298949E-05  1.36383697109869E-01
 -2.35310069928113E-06 -2.35310069928035E-06  2.74940049490314E-01
  4.99788452137800E-01  4.99788452137800E-01  6.84032549961741E-02
  4.99982462532204E-01  4.99982462532204E-01  2.05384861095859E-01
  4.99877016767213E-01  4.99877016767213E-01  3.30195347553278E-01
  6.64365356404016E-01  3.36419539999248E-01  7.68136010074389E-04
  6.89339526082517E-01  3.10620105389995E-01  1.37133929317532E-01
  6.89895953247758E-01  3.10186805881699E-01  2.73704886431264E-01
  3.36419539999248E-01  6.64365356404016E-01  7.68136010074389E-04
  3.10620105389995E-01  6.89339526082517E-01  1.37133929317532E-01
  3.10186805881699E-01  6.89895953247758E-01  2.73704886431264E-01
  3.36202305463723E-01  3.36202305463723E-01  1.09473172055562E-03
  3.10618774196892E-01  3.10618774196892E-01  1.37134715869090E-01
  3.10108449372513E-01  3.10108449372513E-01  2.73777476345421E-01
  6.64199905731277E-01  6.64199905731277E-01  4.57530300047427E-04
  6.89357860636539E-01  6.89357860636539E-01  1.37122922589270E-01
  6.89846420497283E-01  6.89846420497283E-01  2.73628829151974E-01
  1.89934240044743E-03  1.89934240044743E-03  6.15372445712767E-01
  1.46336107465017E-03  1.46336107465017E-03  7.96548817586301E-01
  1.31561037821333E-03  1.31561037821333E-03 -8.08367158061031E-01
  5.04475458157322E-01  5.04475458157322E-01  4.54493040842573E-01
  5.00645635265710E-01  5.00645635265710E-01  6.15139768859181E-01
  5.02636344657702E-01  5.02636344657702E-01  7.95222011503498E-01
  4.98389128797902E-01  7.25838165542227E-02  5.28280988741310E-01
  5.01005647029182E-01  7.24137466974685E-02  7.05250142213584E-01
  5.00523162910887E-01  7.03536271628753E-02  8.86090149352149E-01
  7.25838165542227E-02  4.98389128797902E-01  5.28280988741310E-01
  7.24137466974685E-02  5.01005647029182E-01  7.05250142213584E-01
  7.03536271628753E-02  5.00523162910887E-01  8.86090149352149E-01
 Cartesian forces (fcart) [Ha/bohr]; max,rms= 4.26628E+01 6.47775E+00 (free atoms)
 -1.35760302335509E-01 -1.35760302335509E-01 -4.23381020186781E+01
 -4.28213820874188E-02 -4.28213820874188E-02 -9.45523444127518E+00
 -5.91528310715464E-03 -5.91528310715464E-03  9.90600470160215E-01
  9.98245395100741E-03  9.98245395100742E-03  6.06953101131792E-01
  2.81066740171760E-04  2.81066740171767E-04 -3.25424981210585E-01
  4.09833581547507E-03  4.09833581547507E-03  1.31818794167647E+00
  3.56050559683773E-01 -3.68711479123514E-01 -3.66639338004896E-01
  1.86924754237934E-01 -1.86946580781405E-01 -1.07319852113428E-03
  3.96558062498869E-01 -3.98172348952635E-01  1.91074076274123E-02
 -3.68711479123514E-01  3.56050559683773E-01 -3.66639338004896E-01
 -1.86946580781405E-01  1.86924754237934E-01 -1.07319852113428E-03
 -3.98172348952635E-01  3.96558062498869E-01  1.91074076274123E-02
 -3.68730554113955E-01 -3.68730554113955E-01 -3.89957043292966E-01
 -1.84720641696937E-01 -1.84720641696937E-01 -3.10185304544706E-03
 -3.98146688559678E-01 -3.98146688559678E-01  1.78536272134121E-02
  3.57318188017448E-01  3.57318188017448E-01 -3.51264067582777E-01
  1.85465508706757E-01  1.85465508706758E-01 -1.11763272004002E-03
  3.94743651915726E-01  3.94743651915726E-01  2.03437594170843E-02
  2.23628058525870E-02  2.23628058525870E-02 -2.42602529341751E-02
  1.34945450349948E-01  1.34945450349948E-01  4.26627523658120E+01
  4.64283479929015E-02  4.64283479929015E-02  8.23383340788915E+00
  1.60199447423782E-01  1.60199447423782E-01 -7.90804140264958E-02
  5.06366957623924E-02  5.06366957623924E-02 -3.58040096770757E-02
 -1.18244830284336E-02 -1.18244830284336E-02  5.15996814982271E-02
  7.00492972444267E-03 -2.09754251542531E-01  1.50627660405200E-01
  2.39998989607725E-02 -5.12682373567074E-02 -1.54212949842719E-01
 -2.42786282994529E-02  5.00507033513435E-02 -9.71984018416286E-02
 -2.09754251542531E-01  7.00492972444267E-03  1.50627660405200E-01
 -5.12682373567074E-02  2.39998989607725E-02 -1.54212949842719E-01
  5.00507033513435E-02 -2.42786282994529E-02 -9.71984018416286E-02
 Reduced forces (fred)
  1.10205498634758E+00  1.10205498634758E+00  1.79807905096810E+03
  3.52420821165386E-01  3.52420821165386E-01  4.01559163383030E+02
  5.15172632736889E-02  5.15172632736889E-02 -4.20704362490972E+01
 -8.41269209475313E-02 -8.41269209475313E-02 -2.57769161630701E+01
 -2.79137636937686E-03 -2.79137636937691E-03  1.38206595124927E+01
 -3.32193995693132E-02 -3.32193995693132E-02 -5.59828162654971E+01
 -3.03435690247809E+00  3.14110161680688E+00  1.55709384193286E+01
 -1.59272576061331E+00  1.59290869226335E+00  4.55781438909679E-02
 -3.37893165710323E+00  3.39270431048919E+00 -8.11492593261199E-01
  3.14110161680688E+00 -3.03435690247809E+00  1.55709384193286E+01
  1.59290869226335E+00 -1.59272576061331E+00  4.55781438909679E-02
  3.39270431048919E+00 -3.37893165710323E+00 -8.11492593261199E-01
  3.13465541992118E+00  3.13465541992118E+00  1.65570240318667E+01
  1.57058599511485E+00  1.57058599511485E+00  1.29589915041857E-01
  3.38526978539259E+00  3.38526978539259E+00 -7.62857807253813E-01
 -3.03853634939415E+00 -3.03853634939415E+00  1.49221790271696E+01
 -1.57692444442668E+00 -1.57692444442668E+00  4.96184422954042E-02
 -3.35628828016494E+00 -3.35628828016494E+00 -8.59407958853156E-01
 -1.90170006780235E-01 -1.90170006780235E-01  1.03058191374273E+00
 -1.09472604947662E+00 -1.09472604947662E+00 -1.81186681830776E+03
 -3.84596413162391E-01 -3.84596413162391E-01 -3.49686755219589E+02
 -1.36219562004762E+00 -1.36219562004762E+00  3.36037026291085E+00
 -4.30583394649102E-01 -4.30583394649102E-01  1.52116843239356E+00
  1.00601509731790E-01  1.00601509731790E-01 -2.19155311673336E+00
 -6.13414293695702E-02  1.78559213077001E+00 -6.39826754488217E+00
 -2.04933093139619E-01  4.36401895124133E-01  6.54919807655497E+00
  2.06984207165893E-01 -4.26351535874756E-01  4.12812309777388E+00
  1.78559213077002E+00 -6.13414293695702E-02 -6.39826754488217E+00
  4.36401895124133E-01 -2.04933093139619E-01  6.54919807655497E+00
 -4.26351535874756E-01  2.06984207165893E-01  4.12812309777388E+00
 Scale of Primitive Cell (acell) [bohr]
  8.51159712630563E+00  8.51159712630563E+00  4.24695622823482E+01
 Real space primitive translations (rprimd) [bohr]
  8.51159219547435E+00 -9.07829859248208E-03 -1.23408628194804E-03
 -9.07829859248208E-03  8.51159219547435E+00 -1.23408628194804E-03
 -5.80450452630383E-03 -5.80450452630383E-03  4.24695614890207E+01
 Unitary Cell Volume (ucvol) [Bohr^3]=  3.07679726517120E+03
 Angles (23,13,12)= [degrees]
  9.00161297595539E+01  9.00161297595539E+01  9.01222198734271E+01
 Lengths [Bohr]
  8.51159712630563E+00  8.51159712630563E+00  4.24695622823482E+01
 Stress tensor in cartesian coordinates (strten) [Ha/bohr^3]
 -3.97186228561796E-03  2.92689069467458E-04  4.39787280649280E-05
  2.92689069467458E-04 -3.97186228561796E-03  4.39787280649280E-05
  4.39787280649280E-05  4.39787280649280E-05 -2.97819283440218E-02
 Total energy (etotal) [Ha]= -1.62667961430387E+03

 Difference of energy with previous step (new-old):
           Absolute (Ha)=-1.24325E+01
           Relative     =-7.67221E-03

--- Iteration: ( 3/10) Internal Cycle: (1/1)
--------------------------------------------------------------------------------

---SELF-CONSISTENT-FIELD CONVERGENCE--------------------------------------------

     iter   Etot(hartree)      deltaE(h)  residm     vres2
 ETOT  1   6436.7863536335     6.437E+03 6.952E+06 4.040E+08
 ETOT  2   10410.499355915     3.974E+03 1.363E+06 5.869E+08
 ETOT  3  -1113.5558838809    -1.152E+04 8.447E+05 3.821E+06
 ETOT  4   206.46752712546     1.320E+03 1.035E+04 8.448E+07
 ETOT  5  -1255.1205589583    -1.462E+03 3.809E+02 6.880E+06
 ETOT  6  -1384.1189008022    -1.290E+02 1.823E+01 3.910E+06
 ETOT  7  -1260.8092202251     1.233E+02 7.723E-01 1.019E+07
