
.Version 8.6.3 of ABINIT 
.(sequential version, prepared for a x86_64_linux_gnu5.4 computer) 

.Copyright (C) 1998-2017 ABINIT group . 
 ABINIT comes with ABSOLUTELY NO WARRANTY.
 It is free software, and you are welcome to redistribute it
 under certain conditions (GNU General Public License,
 see ~abinit/COPYING or http://www.gnu.org/copyleft/gpl.txt).

 ABINIT is a project of the Universite Catholique de Louvain,
 Corning Inc. and other collaborators, see ~abinit/doc/developers/contributors.txt .
 Please read ~abinit/doc/users/acknowledgments.html for suggested
 acknowledgments of the ABINIT effort.
 For more information, see https://www.abinit.org .

.Starting date : Thu 19 Apr 2018.
- ( at 14h28 )
  
- input  file    -> sim3geom.in
- output file    -> sim3geom.out
- root for input  files -> sim3geom_i
- root for output files -> sim3geom_o


 Symmetries : space group Cm (#  8); Bravais mC (1-face-center monocl.)
================================================================================
 Values of the parameters that define the memory need of the present run
     intxc =       0    ionmov =       2      iscf =       7    lmnmax =       6
     lnmax =       6     mgfft =     135  mpssoang =       3    mqgrid =    4316
     natom =      30  nloc_mem =       1    nspden =       1   nspinor =       1
    nsppol =       1      nsym =       2    n1xccc =    2501    ntypat =       3
    occopt =       1   xclevel =       1
-    mband =         160        mffmem =           1         mkmem =          16
       mpw =        1927          nfft =      121500          nkpt =          16
================================================================================
P This job should need less than                     115.688 Mbytes of memory.
  Rough estimation (10% accuracy) of disk space for files :
_ WF disk file :     75.275 Mbytes ; DEN or POT disk file :      0.929 Mbytes.
================================================================================

--------------------------------------------------------------------------------
------------- Echo of variables that govern the present computation ------------
--------------------------------------------------------------------------------
-
- outvars: echo of selected default values                                      
-   iomode0 =  0 , fftalg0 =112 , wfoptalg0 =  0
-
- outvars: echo of global parameters not present in the input file              
-  max_nthreads =    0
-
 -outvars: echo values of preprocessed input variables --------
            acell      8.6808000000E+00  8.6808000000E+00  4.0830000000E+01 Bohr
              amu      4.78800000E+01  1.59994000E+01  1.06420000E+02
           diemac      1.20000000E+01
          dilatmx      1.05000000E+00
             ecut      5.00000000E+00 Hartree
           ecutsm      5.00000000E-01 Hartree
-          fftalg         112
           ionmov           2
           istwfk        0    0    0    0    0    7    0    0    5    0
                         0    0    0    6    0    4
              kpt     -1.25000000E-01  0.00000000E+00  0.00000000E+00
                      -2.50000000E-01  5.00000000E-01  0.00000000E+00
                      -1.25000000E-01  5.00000000E-01  5.00000000E-01
                      -3.75000000E-01  0.00000000E+00  0.00000000E+00
                      -2.50000000E-01  0.00000000E+00  5.00000000E-01
                       5.00000000E-01  5.00000000E-01  0.00000000E+00
                      -3.75000000E-01  5.00000000E-01  5.00000000E-01
                       3.75000000E-01  0.00000000E+00  0.00000000E+00
                       5.00000000E-01  0.00000000E+00  5.00000000E-01
                       2.50000000E-01  5.00000000E-01  0.00000000E+00
                       3.75000000E-01  5.00000000E-01  5.00000000E-01
                       1.25000000E-01  0.00000000E+00  0.00000000E+00
                       2.50000000E-01  0.00000000E+00  5.00000000E-01
                       0.00000000E+00  5.00000000E-01  0.00000000E+00
                       1.25000000E-01  5.00000000E-01  5.00000000E-01
                       0.00000000E+00  0.00000000E+00  5.00000000E-01
           kptopt           3
         kptrlatt        4   -1    1      0    2    0     -4   -1    1
          kptrlen      1.73616000E+01
P           mkmem          16
            natom          30
            nband         160
            ngfft          30      30     135
             nkpt          16
            nstep          20
             nsym           2
            ntime          10
           ntypat           3
              occ      2.000000  2.000000  2.000000  2.000000  2.000000  2.000000
                       2.000000  2.000000  2.000000  2.000000  2.000000  2.000000
                       2.000000  2.000000  2.000000  2.000000  2.000000  2.000000
                       2.000000  2.000000  2.000000  2.000000  2.000000  2.000000
                       2.000000  2.000000  2.000000  2.000000  2.000000  2.000000
                       2.000000  2.000000  2.000000  2.000000  2.000000  2.000000
                       2.000000  2.000000  2.000000  2.000000  2.000000  2.000000
                       2.000000  2.000000  2.000000  2.000000  2.000000  2.000000
                       2.000000  2.000000  2.000000  2.000000  2.000000  2.000000
                       2.000000  2.000000  2.000000  2.000000  2.000000  2.000000
                       2.000000  2.000000  2.000000  2.000000  2.000000  2.000000
                       2.000000  2.000000  2.000000  2.000000  2.000000  2.000000
                       2.000000  2.000000  2.000000  2.000000  2.000000  2.000000
                       2.000000  2.000000  2.000000  2.000000  2.000000  2.000000
                       2.000000  2.000000  2.000000  2.000000  2.000000  2.000000
                       2.000000  2.000000  2.000000  2.000000  2.000000  2.000000
                       2.000000  2.000000  2.000000  2.000000  2.000000  2.000000
                       2.000000  2.000000  2.000000  2.000000  2.000000  2.000000
                       2.000000  2.000000  2.000000  2.000000  2.000000  2.000000
                       2.000000  2.000000  2.000000  2.000000  2.000000  2.000000
                       2.000000  2.000000  2.000000  2.000000  2.000000  2.000000
                       2.000000  2.000000  2.000000  2.000000  2.000000  2.000000
                       2.000000  2.000000  2.000000  2.000000  2.000000  2.000000
                       2.000000  2.000000  2.000000  2.000000  2.000000  2.000000
                       2.000000  2.000000  2.000000  2.000000  2.000000  2.000000
                       2.000000  2.000000  2.000000  2.000000  2.000000  2.000000
                       0.000000  0.000000  0.000000  0.000000
          optcell           2
           shiftk      5.00000000E-01  0.00000000E+00  5.00000000E-01
          spgroup           8
           symrel      1  0  0   0  1  0   0  0  1       0  1  0   1  0  0   0  0  1
           toldfe      1.00000000E-04 Hartree
            typat      1  1  1  1  1  1  2  2  2  2  2  2  2  2  2  2  2  2  3  3
                       3  3  3  3  3  3  3  3  3  3
              wtk        0.06250    0.06250    0.06250    0.06250    0.06250    0.06250
                         0.06250    0.06250    0.06250    0.06250    0.06250    0.06250
                         0.06250    0.06250    0.06250    0.06250
           xangst      0.0000000000E+00  0.0000000000E+00  0.0000000000E+00
                       0.0000000000E+00  0.0000000000E+00  2.9586826909E+00
                       0.0000000000E+00  0.0000000000E+00  5.9173653819E+00
                       2.2968407562E+00  2.2968407562E+00  1.4793678043E+00
                       2.2968407562E+00  2.2968407562E+00  4.4379975776E+00
                       2.2968407562E+00  2.2968407562E+00  7.3967331862E+00
                       3.4452611342E+00  1.1484203781E+00  0.0000000000E+00
                       3.4452611342E+00  1.1484203781E+00  2.9586826909E+00
                       3.4452611342E+00  1.1484203781E+00  5.9173653819E+00
                       1.1484203781E+00  3.4452611342E+00  0.0000000000E+00
                       1.1484203781E+00  3.4452611342E+00  2.9586826909E+00
                       1.1484203781E+00  3.4452611342E+00  5.9173653819E+00
                       1.1484203781E+00  1.1484203781E+00  0.0000000000E+00
                       1.1484203781E+00  1.1484203781E+00  2.9586826909E+00
                       1.1484203781E+00  1.1484203781E+00  5.9173653819E+00
                       3.4452611342E+00  3.4452611342E+00  0.0000000000E+00
                       3.4452611342E+00  3.4452611342E+00  2.9586826909E+00
                       3.4452611342E+00  3.4452611342E+00  5.9173653819E+00
                       0.0000000000E+00  0.0000000000E+00  1.3825124998E+01
                       0.0000000000E+00  0.0000000000E+00  1.7715847507E+01
                       0.0000000000E+00  0.0000000000E+00  2.1606570015E+01
                       1.9453612542E+00  1.9453612542E+00  9.9344024900E+00
                       1.9453612542E+00  1.9453612542E+00  1.3825124998E+01
                       1.9453612542E+00  1.9453612542E+00  1.7715847507E+01
                       1.9453612542E+00  0.0000000000E+00  1.1879763744E+01
                       1.9453612542E+00  0.0000000000E+00  1.5770486253E+01
                       1.9453612542E+00  0.0000000000E+00  1.9661208761E+01
                       0.0000000000E+00  1.9453612542E+00  1.1879763744E+01
                       0.0000000000E+00  1.9453612542E+00  1.5770486253E+01
                       0.0000000000E+00  1.9453612542E+00  1.9661208761E+01
            xcart      0.0000000000E+00  0.0000000000E+00  0.0000000000E+00
                       0.0000000000E+00  0.0000000000E+00  5.5911000000E+00
                       0.0000000000E+00  0.0000000000E+00  1.1182200000E+01
                       4.3404000000E+00  4.3404000000E+00  2.7956000000E+00
                       4.3404000000E+00  4.3404000000E+00  8.3866000000E+00
                       4.3404000000E+00  4.3404000000E+00  1.3977800000E+01
                       6.5106000000E+00  2.1702000000E+00  0.0000000000E+00
                       6.5106000000E+00  2.1702000000E+00  5.5911000000E+00
                       6.5106000000E+00  2.1702000000E+00  1.1182200000E+01
                       2.1702000000E+00  6.5106000000E+00  0.0000000000E+00
                       2.1702000000E+00  6.5106000000E+00  5.5911000000E+00
                       2.1702000000E+00  6.5106000000E+00  1.1182200000E+01
                       2.1702000000E+00  2.1702000000E+00  0.0000000000E+00
                       2.1702000000E+00  2.1702000000E+00  5.5911000000E+00
                       2.1702000000E+00  2.1702000000E+00  1.1182200000E+01
                       6.5106000000E+00  6.5106000000E+00  0.0000000000E+00
                       6.5106000000E+00  6.5106000000E+00  5.5911000000E+00
                       6.5106000000E+00  6.5106000000E+00  1.1182200000E+01
                       0.0000000000E+00  0.0000000000E+00  2.6125700000E+01
                       0.0000000000E+00  0.0000000000E+00  3.3478100000E+01
                       0.0000000000E+00  0.0000000000E+00  4.0830500000E+01
                       3.6762000000E+00  3.6762000000E+00  1.8773300000E+01
                       3.6762000000E+00  3.6762000000E+00  2.6125700000E+01
                       3.6762000000E+00  3.6762000000E+00  3.3478100000E+01
                       3.6762000000E+00  0.0000000000E+00  2.2449500000E+01
                       3.6762000000E+00  0.0000000000E+00  2.9801900000E+01
                       3.6762000000E+00  0.0000000000E+00  3.7154300000E+01
                       0.0000000000E+00  3.6762000000E+00  2.2449500000E+01
                       0.0000000000E+00  3.6762000000E+00  2.9801900000E+01
                       0.0000000000E+00  3.6762000000E+00  3.7154300000E+01
             xred      0.0000000000E+00  0.0000000000E+00  0.0000000000E+00
                       0.0000000000E+00  0.0000000000E+00  1.3693607641E-01
                       0.0000000000E+00  0.0000000000E+00  2.7387215283E-01
                       5.0000000000E-01  5.0000000000E-01  6.8469262797E-02
                       5.0000000000E-01  5.0000000000E-01  2.0540289003E-01
                       5.0000000000E-01  5.0000000000E-01  3.4234141563E-01
                       7.5000000000E-01  2.5000000000E-01  0.0000000000E+00
                       7.5000000000E-01  2.5000000000E-01  1.3693607641E-01
                       7.5000000000E-01  2.5000000000E-01  2.7387215283E-01
                       2.5000000000E-01  7.5000000000E-01  0.0000000000E+00
                       2.5000000000E-01  7.5000000000E-01  1.3693607641E-01
                       2.5000000000E-01  7.5000000000E-01  2.7387215283E-01
                       2.5000000000E-01  2.5000000000E-01  0.0000000000E+00
                       2.5000000000E-01  2.5000000000E-01  1.3693607641E-01
                       2.5000000000E-01  2.5000000000E-01  2.7387215283E-01
                       7.5000000000E-01  7.5000000000E-01  0.0000000000E+00
                       7.5000000000E-01  7.5000000000E-01  1.3693607641E-01
                       7.5000000000E-01  7.5000000000E-01  2.7387215283E-01
                       0.0000000000E+00  0.0000000000E+00  6.3986529513E-01
                       0.0000000000E+00  0.0000000000E+00  8.1993877051E-01
                       0.0000000000E+00  0.0000000000E+00  1.0000122459E+00
                       4.2348631463E-01  4.2348631463E-01  4.5979181974E-01
                       4.2348631463E-01  4.2348631463E-01  6.3986529513E-01
                       4.2348631463E-01  4.2348631463E-01  8.1993877051E-01
                       4.2348631463E-01  0.0000000000E+00  5.4982855743E-01
                       4.2348631463E-01  0.0000000000E+00  7.2990203282E-01
                       4.2348631463E-01  0.0000000000E+00  9.0997550820E-01
                       0.0000000000E+00  4.2348631463E-01  5.4982855743E-01
                       0.0000000000E+00  4.2348631463E-01  7.2990203282E-01
                       0.0000000000E+00  4.2348631463E-01  9.0997550820E-01
            znucl       22.00000    8.00000   46.00000

================================================================================

 chkinp: Checking input parameters for consistency.

================================================================================
== DATASET  1 ==================================================================
-   nproc =    1

 Exchange-correlation functional for the present dataset will be:
  LDA: new Teter (4/93) with spin-polarized option - ixc=1
 Citation for XC functional:
  S. Goedecker, M. Teter, J. Huetter, PRB 54, 1703 (1996)

 Real(R)+Recip(G) space primitive vectors, cartesian coordinates (Bohr,Bohr^-1):
 R(1)=  8.6808000  0.0000000  0.0000000  G(1)=  0.1151968  0.0000000  0.0000000
 R(2)=  0.0000000  8.6808000  0.0000000  G(2)=  0.0000000  0.1151968  0.0000000
 R(3)=  0.0000000  0.0000000 40.8300000  G(3)=  0.0000000  0.0000000  0.0244918
 Unit cell volume ucvol=  3.0767973E+03 bohr^3
 Angles (23,13,12)=  9.00000000E+01  9.00000000E+01  9.00000000E+01 degrees

 getcut: wavevector=  0.0000  0.0000  0.0000  ngfft=  30  30 135
         ecut(hartree)=      5.513   => boxcut(ratio)=   3.10517

 getcut : COMMENT -
  Note that boxcut > 2.2 ; recall that boxcut=Gcut(box)/Gcut(sphere) = 2
  is sufficient for exact treatment of convolution.
  Such a large boxcut is a waste : you could raise ecut
  e.g. ecut=   13.288030 Hartrees makes boxcut=2


--- Pseudopotential description ------------------------------------------------
- pspini: atom type   1  psp file is ../../../Psps_for_tests/22ti.pspnc
- pspatm: opening atomic psp file    ../../../Psps_for_tests/22ti.pspnc
-  Troullier-Martins psp for element  Ti        Thu Oct 27 17:33:40 EDT 1994
- 22.00000   4.00000    940714                znucl, zion, pspdat
    1    1    2    0      2001   0.00000      pspcod,pspxc,lmax,lloc,mmax,r2well
    0   5.166   8.509    0   2.4203472        l,e99.0,e99.9,nproj,rcpsp
   0.00000000   0.00000000   0.00000000   0.00000000     rms, ekb1, ekb2, epsatm
    1   2.285   3.944    1   2.9934301        l,e99.0,e99.9,nproj,rcpsp
   0.00000000   0.00000000   0.00000000   0.00000000     rms, ekb1, ekb2, epsatm
    2  20.947  27.069    1   1.9326638        l,e99.0,e99.9,nproj,rcpsp
   0.00000000   0.00000000   0.00000000   0.00000000     rms, ekb1, ekb2, epsatm
    2.82741504495369    0.09256629068341    1.82586447305099   rchrg,fchrg,qchrg
  pspatm : epsatm=   66.67453488
         --- l  ekb(1:nproj) -->
             1    0.915537
             2   -8.015692
 pspatm: atomic psp has been read  and splines computed

- pspini: atom type   2  psp file is ../../../Psps_for_tests/8o.pspnc
- pspatm: opening atomic psp file    ../../../Psps_for_tests/8o.pspnc
-  Troullier-Martins psp for element  O         Thu Oct 27 17:29:57 EDT 1994
-  8.00000   6.00000    940714                znucl, zion, pspdat
    1    1    1    1      2001   0.00000      pspcod,pspxc,lmax,lloc,mmax,r2well
    0   5.480  16.893    1   1.4482335        l,e99.0,e99.9,nproj,rcpsp
   0.00000000   0.00000000   0.00000000   0.00000000     rms, ekb1, ekb2, epsatm
    1  20.911  28.075    0   1.4482335        l,e99.0,e99.9,nproj,rcpsp
   0.00000000   0.00000000   0.00000000   0.00000000     rms, ekb1, ekb2, epsatm
    0.56990156784787    3.95561236318184    0.63894027514378   rchrg,fchrg,qchrg
  pspatm : epsatm=    1.57752239
         --- l  ekb(1:nproj) -->
             0    5.670783
 pspatm: atomic psp has been read  and splines computed

- pspini: atom type   3  psp file is ../../../Psps_for_tests/Pd.psp8
- pspatm: opening atomic psp file    ../../../Psps_for_tests/Pd.psp8
- Pd    ONCVPSP-3.2.3.1  r_core=   1.41052   1.46191   1.55175
- 46.00000  18.00000    170510                znucl, zion, pspdat
    8   11    2    4       600   0.00000      pspcod,pspxc,lmax,lloc,mmax,r2well
    5.99000000000000    7.00000000000000    0.00000000000000   rchrg,fchrg,qchrg
     nproj     2     2     2
     extension_switch     1
  pspatm : epsatm=   26.09224486
         --- l  ekb(1:nproj) -->
             0    7.845850   -2.282160
             1    3.261104   -0.686948
             2   -1.134855   -0.401224
 pspatm: atomic psp has been read  and splines computed

   2.28410338E+05                                ecore*ucvol(ha*bohr**3)
--------------------------------------------------------------------------------

_setup2: Arith. and geom. avg. npw (full set) are    1899.375    1899.247

================================================================================

=== [ionmov= 2] Broyden-Fletcher-Goldfard-Shanno method (forces)            
================================================================================

--- Iteration: ( 1/10) Internal Cycle: (1/1)
--------------------------------------------------------------------------------

---SELF-CONSISTENT-FIELD CONVERGENCE--------------------------------------------

     iter   Etot(hartree)      deltaE(h)  residm     vres2
 ETOT  1   142478.25075523     1.425E+05 3.357E-02 5.034E+06
 ETOT  2   143785.98287105     1.308E+03 1.901E-01 6.248E+07
 ETOT  3   142441.58755129    -1.344E+03 4.870E-01 4.713E+06
 ETOT  4   142352.18841480    -8.940E+01 1.337E-01 1.080E+06
 ETOT  5   142395.78196366     4.359E+01 4.053E-02 3.032E+06
 ETOT  6   142358.56001655    -3.722E+01 1.471E-02 1.750E+06
 ETOT  7   142323.22977696    -3.533E+01 8.880E-03 3.444E+05
 ETOT  8   142317.09317821    -6.137E+00 1.584E-02 9.996E+04
 ETOT  9   142318.02732859     9.342E-01 6.982E-03 1.417E+05
 ETOT 10   142318.98712864     9.598E-01 2.916E-03 1.888E+05
 ETOT 11   142315.67060393    -3.317E+00 7.052E-04 5.148E+04
 ETOT 12   142314.47003784    -1.201E+00 7.922E-04 3.770E+03
 ETOT 13   142314.52274456     5.271E-02 5.913E-04 5.139E+03
 ETOT 14   142314.44364998    -7.909E-02 5.748E-04 3.031E+03
 ETOT 15   142314.36792304    -7.573E-02 3.595E-04 2.169E+02
 ETOT 16   142314.36497980    -2.943E-03 4.271E-04 1.303E+02
 ETOT 17   142314.36185272    -3.127E-03 2.215E-04 3.018E+01
 ETOT 18   142314.36108545    -7.673E-04 2.045E-04 1.378E+01
 ETOT 19   142314.36053820    -5.473E-04 1.196E-04 1.187E+00
 ETOT 20   142314.36041366    -1.245E-04 9.418E-05 7.865E-01

 Cartesian components of stress tensor (hartree/bohr^3)
  sigma(1 1)= -5.67562643E-03  sigma(3 2)=  1.73578017E-04
  sigma(2 2)= -5.67562643E-03  sigma(3 1)=  1.73578017E-04
  sigma(3 3)= -4.68026840E+01  sigma(2 1)=  1.17603566E-04


 scprqt:  WARNING -
  nstep=   20 was not enough SCF cycles to converge;
  maximum energy difference=  1.245E-04 exceeds toldfe=  1.000E-04

 Integrated electronic density in atomic spheres:
 ------------------------------------------------
 Atom  Sphere_radius  Integrated_density
    1        2.00000         16.57812058
    2        2.00000          1.97201385
    3        2.00000          1.88348902
    4        2.00000          0.68587047
    5        2.00000          0.65054410
    6        2.00000          0.58891497
    7        2.00000          6.98539475
    8        2.00000          6.03431754
    9        2.00000          6.01951405
   10        2.00000          6.98539475
   11        2.00000          6.03431754
   12        2.00000          6.01951405
   13        2.00000          7.01472633
   14        2.00000          6.03620303
   15        2.00000          6.01878409
   16        2.00000          6.99700864
   17        2.00000          6.03638853
   18        2.00000          6.02105484
   19        2.00000         13.28123922
   20        2.00000         13.26544125
   21        2.00000         16.57812058
   22        2.00000         13.47001130
   23        2.00000         13.35626000
   24        2.00000         13.36595858
   25        2.00000         13.35407413
   26        2.00000         13.30928846
   27        2.00000         13.53184294
   28        2.00000         13.35407413
   29        2.00000         13.30928846
   30        2.00000         13.53184294

---OUTPUT-----------------------------------------------------------------------

 Cartesian coordinates (xcart) [bohr]
  0.00000000000000E+00  0.00000000000000E+00  0.00000000000000E+00
  0.00000000000000E+00  0.00000000000000E+00  5.59110000000000E+00
  0.00000000000000E+00  0.00000000000000E+00  1.11822000000000E+01
  4.34040000000000E+00  4.34040000000000E+00  2.79560000000000E+00
  4.34040000000000E+00  4.34040000000000E+00  8.38660000000000E+00
  4.34040000000000E+00  4.34040000000000E+00  1.39778000000000E+01
  6.51060000000000E+00  2.17020000000000E+00  0.00000000000000E+00
  6.51060000000000E+00  2.17020000000000E+00  5.59110000000000E+00
  6.51060000000000E+00  2.17020000000000E+00  1.11822000000000E+01
  2.17020000000000E+00  6.51060000000000E+00  0.00000000000000E+00
  2.17020000000000E+00  6.51060000000000E+00  5.59110000000000E+00
  2.17020000000000E+00  6.51060000000000E+00  1.11822000000000E+01
  2.17020000000000E+00  2.17020000000000E+00  0.00000000000000E+00
  2.17020000000000E+00  2.17020000000000E+00  5.59110000000000E+00
  2.17020000000000E+00  2.17020000000000E+00  1.11822000000000E+01
  6.51060000000000E+00  6.51060000000000E+00  0.00000000000000E+00
  6.51060000000000E+00  6.51060000000000E+00  5.59110000000000E+00
  6.51060000000000E+00  6.51060000000000E+00  1.11822000000000E+01
  0.00000000000000E+00  0.00000000000000E+00  2.61257000000000E+01
  0.00000000000000E+00  0.00000000000000E+00  3.34781000000000E+01
  0.00000000000000E+00  0.00000000000000E+00  4.08305000000000E+01
  3.67620000000000E+00  3.67620000000000E+00  1.87733000000000E+01
  3.67620000000000E+00  3.67620000000000E+00  2.61257000000000E+01
  3.67620000000000E+00  3.67620000000000E+00  3.34781000000000E+01
  3.67620000000000E+00  0.00000000000000E+00  2.24495000000000E+01
  3.67620000000000E+00  0.00000000000000E+00  2.98019000000000E+01
  3.67620000000000E+00  0.00000000000000E+00  3.71543000000000E+01
  0.00000000000000E+00  3.67620000000000E+00  2.24495000000000E+01
  0.00000000000000E+00  3.67620000000000E+00  2.98019000000000E+01
  0.00000000000000E+00  3.67620000000000E+00  3.71543000000000E+01
 Reduced coordinates (xred)
  0.00000000000000E+00  0.00000000000000E+00  0.00000000000000E+00
  0.00000000000000E+00  0.00000000000000E+00  1.36936076414401E-01
  0.00000000000000E+00  0.00000000000000E+00  2.73872152828802E-01
  5.00000000000000E-01  5.00000000000000E-01  6.84692627969630E-02
  5.00000000000000E-01  5.00000000000000E-01  2.05402890031839E-01
  5.00000000000000E-01  5.00000000000000E-01  3.42341415625765E-01
  7.50000000000000E-01  2.50000000000000E-01  0.00000000000000E+00
  7.50000000000000E-01  2.50000000000000E-01  1.36936076414401E-01
  7.50000000000000E-01  2.50000000000000E-01  2.73872152828802E-01
  2.50000000000000E-01  7.50000000000000E-01  0.00000000000000E+00
  2.50000000000000E-01  7.50000000000000E-01  1.36936076414401E-01
  2.50000000000000E-01  7.50000000000000E-01  2.73872152828802E-01
  2.50000000000000E-01  2.50000000000000E-01  0.00000000000000E+00
  2.50000000000000E-01  2.50000000000000E-01  1.36936076414401E-01
  2.50000000000000E-01  2.50000000000000E-01  2.73872152828802E-01
  7.50000000000000E-01  7.50000000000000E-01  0.00000000000000E+00
  7.50000000000000E-01  7.50000000000000E-01  1.36936076414401E-01
  7.50000000000000E-01  7.50000000000000E-01  2.73872152828802E-01
  0.00000000000000E+00  0.00000000000000E+00  6.39865295126133E-01
  0.00000000000000E+00  0.00000000000000E+00  8.19938770511879E-01
  0.00000000000000E+00  0.00000000000000E+00  1.00001224589762E+00
  4.23486314625380E-01  4.23486314625380E-01  4.59791819740387E-01
  4.23486314625380E-01  4.23486314625380E-01  6.39865295126133E-01
  4.23486314625380E-01  4.23486314625380E-01  8.19938770511879E-01
  4.23486314625380E-01  0.00000000000000E+00  5.49828557433260E-01
  4.23486314625380E-01  0.00000000000000E+00  7.29902032819006E-01
  4.23486314625380E-01  0.00000000000000E+00  9.09975508204751E-01
  0.00000000000000E+00  4.23486314625380E-01  5.49828557433260E-01
  0.00000000000000E+00  4.23486314625380E-01  7.29902032819006E-01
  0.00000000000000E+00  4.23486314625380E-01  9.09975508204751E-01
 Cartesian forces (fcart) [Ha/bohr]; max,rms= 2.88000E+08 4.29325E+07 (free atoms)
 -3.95134817033998E-02 -3.95134817033998E-02 -2.87999999890848E+08
  6.25262487427927E-04  6.25262487427928E-04  6.94153075947429E-02
  5.82772790668871E-04  5.82772790668872E-04  4.58781703174807E-02
 -3.51990569674458E-04 -3.51990569674457E-04 -2.38592076653323E-02
 -1.08092818746787E-03 -1.08092818746787E-03 -1.82109639856643E-03
 -1.57479283051618E-03 -1.57479283051618E-03  2.36358915324115E-01
 -1.06999055753113E+00  1.01490109604353E+00 -1.06155974087999E-02
 -5.23214970893090E-01  5.23255300097627E-01 -1.06567062925142E-02
 -5.25358012015875E-01  5.24550922450021E-01  4.40423642125705E-03
  1.01490109604353E+00 -1.06999055753113E+00 -1.06155974087999E-02
  5.23255300097627E-01 -5.23214970893090E-01 -1.06567062925142E-02
  5.24550922450021E-01 -5.25358012015875E-01  4.40423642125705E-03
  1.05201533742342E+00  1.05201533742342E+00  8.73628653479508E-02
  5.23139885153139E-01  5.23139885153139E-01 -5.87318427244760E-03
  5.25178608583741E-01  5.25178608583741E-01  6.06805945495817E-03
 -1.03089182840682E+00 -1.03089182840682E+00 -3.92839836995483E-02
 -5.24494930234241E-01 -5.24494930234241E-01 -1.27740759645819E-02
 -5.24222186802541E-01 -5.24222186802541E-01  2.74977482287508E-03
 -7.46202293385331E-02 -7.46202293385331E-02 -1.68353385213076E-02
 -8.16878107133394E-02 -8.16878107133394E-02  5.36517772118969E-03
 -6.44403879212706E-02 -6.44403879212706E-02  2.87999999894067E+08
  2.85590309307087E-02  2.85590309307087E-02  4.84169227039318E-02
  7.13004634109397E-02  7.13004634109397E-02 -1.43247134888048E-02
  7.37621590948547E-02  7.37621590948547E-02  3.30367819540312E-02
  2.16097791178506E-02 -4.82268418966181E-02  1.97682990092481E-02
  8.78459773640343E-02 -8.77846622042958E-02  6.86345259227924E-03
  2.12678796700495E-01 -6.25517803996361E-02 -2.21313822729328E-01
 -4.82268418966181E-02  2.16097791178506E-02  1.97682990092481E-02
 -8.77846622042958E-02  8.78459773640343E-02  6.86345259227924E-03
 -6.25517803996361E-02  2.12678796700495E-01 -2.21313822729328E-01
 Reduced forces (fred)
  3.43008631970873E-01  3.43008631970873E-01  1.17590399955433E+10
 -5.42777860086435E-03 -5.42777860086436E-03 -2.83422700909335E+00
 -5.05893404123834E-03 -5.05893404123835E-03 -1.87320569406274E+00
  3.05555973723003E-03  3.05555973723002E-03  9.74171448975517E-01
  9.38332140977107E-03  9.38332140977107E-03  7.43553659534675E-02
  1.36704616031449E-02  1.36704616031449E-02 -9.65053451268363E+00
  9.28837403181624E+00 -8.81015343453466E+00  4.33434842201301E-01
  4.54192451932873E+00 -4.54227460908748E+00  4.35113317923357E-01
  4.56052783070741E+00 -4.55352164760414E+00 -1.79824973079925E-01
 -8.81015343453466E+00  9.28837403181624E+00  4.33434842201301E-01
 -4.54227460908748E+00  4.54192451932873E+00  4.35113317923357E-01
 -4.55352164760414E+00  4.56052783070741E+00 -1.79824973079925E-01
 -9.13233474110520E+00 -9.13233474110520E+00 -3.56702579215683E+00
 -4.54127271503737E+00 -4.54127271503737E+00  2.39802113844036E-01
 -4.55897046539374E+00 -4.55897046539374E+00 -2.47758867545942E-01
  8.94896578403396E+00  8.94896578403396E+00  1.60396505445256E+00
  4.55303559037740E+00  4.55303559037740E+00  5.21565521633881E-01
  4.55066795919549E+00  4.55066795919549E+00 -1.12273306017989E-01
  6.47763286841939E-01  6.47763286841939E-01  6.87386871824991E-01
  7.09115547240356E-01  7.09115547240356E-01 -2.19060206356175E-01
  5.59394119466966E-01  5.59394119466966E-01 -1.17590399956748E+10
 -2.47915235703296E-01 -2.47915235703296E-01 -1.97686295400153E+00
 -6.18945062777685E-01 -6.18945062777685E-01  5.84878051747899E-01
 -6.40314550670615E-01 -6.40314550670615E-01 -1.34889180718309E+00
 -1.87590170566237E-01  4.18647569136162E-01 -8.07139648547601E-01
 -7.62573360301709E-01  7.62041095663051E-01 -2.80234769342761E-01
 -1.84622209839766E+00  5.42999495293161E-01  9.03624338203845E+00
  4.18647569136163E-01 -1.87590170566237E-01 -8.07139648547601E-01
  7.62041095663051E-01 -7.62573360301709E-01 -2.80234769342761E-01
  5.42999495293161E-01 -1.84622209839766E+00  9.03624338203845E+00
 Scale of Primitive Cell (acell) [bohr]
  8.68080000000000E+00  8.68080000000000E+00  4.08300000000000E+01
 Real space primitive translations (rprimd) [bohr]
  8.68080000000000E+00  0.00000000000000E+00  0.00000000000000E+00
  0.00000000000000E+00  8.68080000000000E+00  0.00000000000000E+00
  0.00000000000000E+00  0.00000000000000E+00  4.08300000000000E+01
 Unitary Cell Volume (ucvol) [Bohr^3]=  3.07679726517120E+03
 Angles (23,13,12)= [degrees]
  9.00000000000000E+01  9.00000000000000E+01  9.00000000000000E+01
 Lengths [Bohr]
  8.68080000000000E+00  8.68080000000000E+00  4.08300000000000E+01
 Stress tensor in cartesian coordinates (strten) [Ha/bohr^3]
 -5.67562642820979E-03  1.17603565943023E-04  1.73578016757083E-04
  1.17603565943023E-04 -5.67562642820979E-03  1.73578016757083E-04
  1.73578016757083E-04  1.73578016757083E-04 -4.68026839979571E+01
 Total energy (etotal) [Ha]=  1.42314360413661E+05

--- Iteration: ( 2/10) Internal Cycle: (1/1)
--------------------------------------------------------------------------------

---SELF-CONSISTENT-FIELD CONVERGENCE--------------------------------------------

     iter   Etot(hartree)      deltaE(h)  residm     vres2
