
.Version 8.6.3 of ABINIT 
.(sequential version, prepared for a x86_64_linux_gnu5.4 computer) 

.Copyright (C) 1998-2017 ABINIT group . 
 ABINIT comes with ABSOLUTELY NO WARRANTY.
 It is free software, and you are welcome to redistribute it
 under certain conditions (GNU General Public License,
 see ~abinit/COPYING or http://www.gnu.org/copyleft/gpl.txt).

 ABINIT is a project of the Universite Catholique de Louvain,
 Corning Inc. and other collaborators, see ~abinit/doc/developers/contributors.txt .
 Please read ~abinit/doc/users/acknowledgments.html for suggested
 acknowledgments of the ABINIT effort.
 For more information, see https://www.abinit.org .

.Starting date : Thu 19 Apr 2018.
- ( at 17h10 )
  
- input  file    -> sim3geom.in
- output file    -> sim3geom.out
- root for input  files -> sim3geom_i
- root for output files -> sim3geom_o


 Symmetries : space group Cm (#  8); Bravais mC (1-face-center monocl.)
================================================================================
 Values of the parameters that define the memory need of the present run
     intxc =       0    ionmov =       2      iscf =       7    lmnmax =       6
     lnmax =       6     mgfft =     135  mpssoang =       3    mqgrid =    4316
     natom =      30  nloc_mem =       1    nspden =       1   nspinor =       1
    nsppol =       1      nsym =       2    n1xccc =    2501    ntypat =       3
    occopt =       1   xclevel =       1
-    mband =         160        mffmem =           1         mkmem =          16
       mpw =        1927          nfft =      121500          nkpt =          16
================================================================================
P This job should need less than                     115.688 Mbytes of memory.
  Rough estimation (10% accuracy) of disk space for files :
_ WF disk file :     75.275 Mbytes ; DEN or POT disk file :      0.929 Mbytes.
================================================================================

--------------------------------------------------------------------------------
------------- Echo of variables that govern the present computation ------------
--------------------------------------------------------------------------------
-
- outvars: echo of selected default values                                      
-   iomode0 =  0 , fftalg0 =112 , wfoptalg0 =  0
-
- outvars: echo of global parameters not present in the input file              
-  max_nthreads =    0
-
 -outvars: echo values of preprocessed input variables --------
            acell      8.6808000000E+00  8.6808000000E+00  4.0830000000E+01 Bohr
              amu      4.78800000E+01  1.59994000E+01  1.06420000E+02
           diemac      1.20000000E+01
          dilatmx      1.05000000E+00
             ecut      5.00000000E+00 Hartree
           ecutsm      5.00000000E-01 Hartree
-          fftalg         112
           ionmov           2
           istwfk        0    0    0    0    0    7    0    0    5    0
                         0    0    0    6    0    4
              kpt     -1.25000000E-01  0.00000000E+00  0.00000000E+00
                      -2.50000000E-01  5.00000000E-01  0.00000000E+00
                      -1.25000000E-01  5.00000000E-01  5.00000000E-01
                      -3.75000000E-01  0.00000000E+00  0.00000000E+00
                      -2.50000000E-01  0.00000000E+00  5.00000000E-01
                       5.00000000E-01  5.00000000E-01  0.00000000E+00
                      -3.75000000E-01  5.00000000E-01  5.00000000E-01
                       3.75000000E-01  0.00000000E+00  0.00000000E+00
                       5.00000000E-01  0.00000000E+00  5.00000000E-01
                       2.50000000E-01  5.00000000E-01  0.00000000E+00
                       3.75000000E-01  5.00000000E-01  5.00000000E-01
                       1.25000000E-01  0.00000000E+00  0.00000000E+00
                       2.50000000E-01  0.00000000E+00  5.00000000E-01
                       0.00000000E+00  5.00000000E-01  0.00000000E+00
                       1.25000000E-01  5.00000000E-01  5.00000000E-01
                       0.00000000E+00  0.00000000E+00  5.00000000E-01
           kptopt           3
         kptrlatt        4   -1    1      0    2    0     -4   -1    1
          kptrlen      1.73616000E+01
P           mkmem          16
            natom          30
            nband         160
            ngfft          30      30     135
             nkpt          16
            nstep          20
             nsym           2
            ntime          10
           ntypat           3
              occ      2.000000  2.000000  2.000000  2.000000  2.000000  2.000000
                       2.000000  2.000000  2.000000  2.000000  2.000000  2.000000
                       2.000000  2.000000  2.000000  2.000000  2.000000  2.000000
                       2.000000  2.000000  2.000000  2.000000  2.000000  2.000000
                       2.000000  2.000000  2.000000  2.000000  2.000000  2.000000
                       2.000000  2.000000  2.000000  2.000000  2.000000  2.000000
                       2.000000  2.000000  2.000000  2.000000  2.000000  2.000000
                       2.000000  2.000000  2.000000  2.000000  2.000000  2.000000
                       2.000000  2.000000  2.000000  2.000000  2.000000  2.000000
                       2.000000  2.000000  2.000000  2.000000  2.000000  2.000000
                       2.000000  2.000000  2.000000  2.000000  2.000000  2.000000
                       2.000000  2.000000  2.000000  2.000000  2.000000  2.000000
                       2.000000  2.000000  2.000000  2.000000  2.000000  2.000000
                       2.000000  2.000000  2.000000  2.000000  2.000000  2.000000
                       2.000000  2.000000  2.000000  2.000000  2.000000  2.000000
                       2.000000  2.000000  2.000000  2.000000  2.000000  2.000000
                       2.000000  2.000000  2.000000  2.000000  2.000000  2.000000
                       2.000000  2.000000  2.000000  2.000000  2.000000  2.000000
                       2.000000  2.000000  2.000000  2.000000  2.000000  2.000000
                       2.000000  2.000000  2.000000  2.000000  2.000000  2.000000
                       2.000000  2.000000  2.000000  2.000000  2.000000  2.000000
                       2.000000  2.000000  2.000000  2.000000  2.000000  2.000000
                       2.000000  2.000000  2.000000  2.000000  2.000000  2.000000
                       2.000000  2.000000  2.000000  2.000000  2.000000  2.000000
                       2.000000  2.000000  2.000000  2.000000  2.000000  2.000000
                       2.000000  2.000000  2.000000  2.000000  2.000000  2.000000
                       0.000000  0.000000  0.000000  0.000000
          optcell           3
           shiftk      5.00000000E-01  0.00000000E+00  5.00000000E-01
          spgroup           8
           symrel      1  0  0   0  1  0   0  0  1       0  1  0   1  0  0   0  0  1
           toldfe      1.00000000E-04 Hartree
            typat      1  1  1  1  1  1  2  2  2  2  2  2  2  2  2  2  2  2  3  3
                       3  3  3  3  3  3  3  3  3  3
              wtk        0.06250    0.06250    0.06250    0.06250    0.06250    0.06250
                         0.06250    0.06250    0.06250    0.06250    0.06250    0.06250
                         0.06250    0.06250    0.06250    0.06250
           xangst      0.0000000000E+00  0.0000000000E+00  0.0000000000E+00
                       0.0000000000E+00  0.0000000000E+00  2.9586826909E+00
                       0.0000000000E+00  0.0000000000E+00  5.9173653819E+00
                       2.2968407562E+00  2.2968407562E+00  1.4793678043E+00
                       2.2968407562E+00  2.2968407562E+00  4.4379975776E+00
                       2.2968407562E+00  2.2968407562E+00  7.3967331862E+00
                       3.4452611342E+00  1.1484203781E+00  0.0000000000E+00
                       3.4452611342E+00  1.1484203781E+00  2.9586826909E+00
                       3.4452611342E+00  1.1484203781E+00  5.9173653819E+00
                       1.1484203781E+00  3.4452611342E+00  0.0000000000E+00
                       1.1484203781E+00  3.4452611342E+00  2.9586826909E+00
                       1.1484203781E+00  3.4452611342E+00  5.9173653819E+00
                       1.1484203781E+00  1.1484203781E+00  0.0000000000E+00
                       1.1484203781E+00  1.1484203781E+00  2.9586826909E+00
                       1.1484203781E+00  1.1484203781E+00  5.9173653819E+00
                       3.4452611342E+00  3.4452611342E+00  0.0000000000E+00
                       3.4452611342E+00  3.4452611342E+00  2.9586826909E+00
                       3.4452611342E+00  3.4452611342E+00  5.9173653819E+00
                       0.0000000000E+00  0.0000000000E+00  1.3295947790E+01
                       0.0000000000E+00  0.0000000000E+00  1.7186670298E+01
                       0.0000000000E+00  0.0000000000E+00  2.1077392807E+01
                       2.2968407562E+00  2.2968407562E+00  9.4052252814E+00
                       2.2968407562E+00  2.2968407562E+00  1.3295947790E+01
                       2.2968407562E+00  2.2968407562E+00  1.7186670298E+01
                       2.2968407562E+00  3.5147950195E-01  1.1350586536E+01
                       2.2968407562E+00  3.5147950195E-01  1.5241309044E+01
                       2.2968407562E+00  3.5147950195E-01  1.9132031553E+01
                       3.5147950195E-01  2.2968407562E+00  1.1350586536E+01
                       3.5147950195E-01  2.2968407562E+00  1.5241309044E+01
                       3.5147950195E-01  2.2968407562E+00  1.9132031553E+01
            xcart      0.0000000000E+00  0.0000000000E+00  0.0000000000E+00
                       0.0000000000E+00  0.0000000000E+00  5.5911000000E+00
                       0.0000000000E+00  0.0000000000E+00  1.1182200000E+01
                       4.3404000000E+00  4.3404000000E+00  2.7956000000E+00
                       4.3404000000E+00  4.3404000000E+00  8.3866000000E+00
                       4.3404000000E+00  4.3404000000E+00  1.3977800000E+01
                       6.5106000000E+00  2.1702000000E+00  0.0000000000E+00
                       6.5106000000E+00  2.1702000000E+00  5.5911000000E+00
                       6.5106000000E+00  2.1702000000E+00  1.1182200000E+01
                       2.1702000000E+00  6.5106000000E+00  0.0000000000E+00
                       2.1702000000E+00  6.5106000000E+00  5.5911000000E+00
                       2.1702000000E+00  6.5106000000E+00  1.1182200000E+01
                       2.1702000000E+00  2.1702000000E+00  0.0000000000E+00
                       2.1702000000E+00  2.1702000000E+00  5.5911000000E+00
                       2.1702000000E+00  2.1702000000E+00  1.1182200000E+01
                       6.5106000000E+00  6.5106000000E+00  0.0000000000E+00
                       6.5106000000E+00  6.5106000000E+00  5.5911000000E+00
                       6.5106000000E+00  6.5106000000E+00  1.1182200000E+01
                       0.0000000000E+00  0.0000000000E+00  2.5125700000E+01
                       0.0000000000E+00  0.0000000000E+00  3.2478100000E+01
                       0.0000000000E+00  0.0000000000E+00  3.9830500000E+01
                       4.3404000000E+00  4.3404000000E+00  1.7773300000E+01
                       4.3404000000E+00  4.3404000000E+00  2.5125700000E+01
                       4.3404000000E+00  4.3404000000E+00  3.2478100000E+01
                       4.3404000000E+00  6.6420000000E-01  2.1449500000E+01
                       4.3404000000E+00  6.6420000000E-01  2.8801900000E+01
                       4.3404000000E+00  6.6420000000E-01  3.6154300000E+01
                       6.6420000000E-01  4.3404000000E+00  2.1449500000E+01
                       6.6420000000E-01  4.3404000000E+00  2.8801900000E+01
                       6.6420000000E-01  4.3404000000E+00  3.6154300000E+01
             xred      0.0000000000E+00  0.0000000000E+00  0.0000000000E+00
                       0.0000000000E+00  0.0000000000E+00  1.3693607641E-01
                       0.0000000000E+00  0.0000000000E+00  2.7387215283E-01
                       5.0000000000E-01  5.0000000000E-01  6.8469262797E-02
                       5.0000000000E-01  5.0000000000E-01  2.0540289003E-01
                       5.0000000000E-01  5.0000000000E-01  3.4234141563E-01
                       7.5000000000E-01  2.5000000000E-01  0.0000000000E+00
                       7.5000000000E-01  2.5000000000E-01  1.3693607641E-01
                       7.5000000000E-01  2.5000000000E-01  2.7387215283E-01
                       2.5000000000E-01  7.5000000000E-01  0.0000000000E+00
                       2.5000000000E-01  7.5000000000E-01  1.3693607641E-01
                       2.5000000000E-01  7.5000000000E-01  2.7387215283E-01
                       2.5000000000E-01  2.5000000000E-01  0.0000000000E+00
                       2.5000000000E-01  2.5000000000E-01  1.3693607641E-01
                       2.5000000000E-01  2.5000000000E-01  2.7387215283E-01
                       7.5000000000E-01  7.5000000000E-01  0.0000000000E+00
                       7.5000000000E-01  7.5000000000E-01  1.3693607641E-01
                       7.5000000000E-01  7.5000000000E-01  2.7387215283E-01
                       0.0000000000E+00  0.0000000000E+00  6.1537349988E-01
                       0.0000000000E+00  0.0000000000E+00  7.9544697526E-01
                       0.0000000000E+00  0.0000000000E+00  9.7552045065E-01
                       5.0000000000E-01  5.0000000000E-01  4.3530002449E-01
                       5.0000000000E-01  5.0000000000E-01  6.1537349988E-01
                       5.0000000000E-01  5.0000000000E-01  7.9544697526E-01
                       5.0000000000E-01  7.6513685375E-02  5.2533676218E-01
                       5.0000000000E-01  7.6513685375E-02  7.0541023757E-01
                       5.0000000000E-01  7.6513685375E-02  8.8548371296E-01
                       7.6513685375E-02  5.0000000000E-01  5.2533676218E-01
                       7.6513685375E-02  5.0000000000E-01  7.0541023757E-01
                       7.6513685375E-02  5.0000000000E-01  8.8548371296E-01
            znucl       22.00000    8.00000   46.00000

================================================================================

 chkinp: Checking input parameters for consistency.

================================================================================
== DATASET  1 ==================================================================
-   nproc =    1

 Exchange-correlation functional for the present dataset will be:
  LDA: new Teter (4/93) with spin-polarized option - ixc=1
 Citation for XC functional:
  S. Goedecker, M. Teter, J. Huetter, PRB 54, 1703 (1996)

 Real(R)+Recip(G) space primitive vectors, cartesian coordinates (Bohr,Bohr^-1):
 R(1)=  8.6808000  0.0000000  0.0000000  G(1)=  0.1151968  0.0000000  0.0000000
 R(2)=  0.0000000  8.6808000  0.0000000  G(2)=  0.0000000  0.1151968  0.0000000
 R(3)=  0.0000000  0.0000000 40.8300000  G(3)=  0.0000000  0.0000000  0.0244918
 Unit cell volume ucvol=  3.0767973E+03 bohr^3
 Angles (23,13,12)=  9.00000000E+01  9.00000000E+01  9.00000000E+01 degrees

 getcut: wavevector=  0.0000  0.0000  0.0000  ngfft=  30  30 135
         ecut(hartree)=      5.513   => boxcut(ratio)=   3.10517

 getcut : COMMENT -
  Note that boxcut > 2.2 ; recall that boxcut=Gcut(box)/Gcut(sphere) = 2
  is sufficient for exact treatment of convolution.
  Such a large boxcut is a waste : you could raise ecut
  e.g. ecut=   13.288030 Hartrees makes boxcut=2


--- Pseudopotential description ------------------------------------------------
- pspini: atom type   1  psp file is ../../../Psps_for_tests/22ti.pspnc
- pspatm: opening atomic psp file    ../../../Psps_for_tests/22ti.pspnc
-  Troullier-Martins psp for element  Ti        Thu Oct 27 17:33:40 EDT 1994
- 22.00000   4.00000    940714                znucl, zion, pspdat
    1    1    2    0      2001   0.00000      pspcod,pspxc,lmax,lloc,mmax,r2well
    0   5.166   8.509    0   2.4203472        l,e99.0,e99.9,nproj,rcpsp
   0.00000000   0.00000000   0.00000000   0.00000000     rms, ekb1, ekb2, epsatm
    1   2.285   3.944    1   2.9934301        l,e99.0,e99.9,nproj,rcpsp
   0.00000000   0.00000000   0.00000000   0.00000000     rms, ekb1, ekb2, epsatm
    2  20.947  27.069    1   1.9326638        l,e99.0,e99.9,nproj,rcpsp
   0.00000000   0.00000000   0.00000000   0.00000000     rms, ekb1, ekb2, epsatm
    2.82741504495369    0.09256629068341    1.82586447305099   rchrg,fchrg,qchrg
  pspatm : epsatm=   66.67453488
         --- l  ekb(1:nproj) -->
             1    0.915537
             2   -8.015692
 pspatm: atomic psp has been read  and splines computed

- pspini: atom type   2  psp file is ../../../Psps_for_tests/8o.pspnc
- pspatm: opening atomic psp file    ../../../Psps_for_tests/8o.pspnc
-  Troullier-Martins psp for element  O         Thu Oct 27 17:29:57 EDT 1994
-  8.00000   6.00000    940714                znucl, zion, pspdat
    1    1    1    1      2001   0.00000      pspcod,pspxc,lmax,lloc,mmax,r2well
    0   5.480  16.893    1   1.4482335        l,e99.0,e99.9,nproj,rcpsp
   0.00000000   0.00000000   0.00000000   0.00000000     rms, ekb1, ekb2, epsatm
    1  20.911  28.075    0   1.4482335        l,e99.0,e99.9,nproj,rcpsp
   0.00000000   0.00000000   0.00000000   0.00000000     rms, ekb1, ekb2, epsatm
    0.56990156784787    3.95561236318184    0.63894027514378   rchrg,fchrg,qchrg
  pspatm : epsatm=    1.57752239
         --- l  ekb(1:nproj) -->
             0    5.670783
 pspatm: atomic psp has been read  and splines computed

- pspini: atom type   3  psp file is ../../../Psps_for_tests/Pd.psp8
- pspatm: opening atomic psp file    ../../../Psps_for_tests/Pd.psp8
- Pd    ONCVPSP-3.2.3.1  r_core=   1.41052   1.46191   1.55175
- 46.00000  18.00000    170510                znucl, zion, pspdat
    8   11    2    4       600   0.00000      pspcod,pspxc,lmax,lloc,mmax,r2well
    5.99000000000000    7.00000000000000    0.00000000000000   rchrg,fchrg,qchrg
     nproj     2     2     2
     extension_switch     1
  pspatm : epsatm=   26.09224486
         --- l  ekb(1:nproj) -->
             0    7.845850   -2.282160
             1    3.261104   -0.686948
             2   -1.134855   -0.401224
 pspatm: atomic psp has been read  and splines computed

   2.28410338E+05                                ecore*ucvol(ha*bohr**3)
--------------------------------------------------------------------------------

_setup2: Arith. and geom. avg. npw (full set) are    1899.375    1899.247

================================================================================

=== [ionmov= 2] Broyden-Fletcher-Goldfard-Shanno method (forces)            
================================================================================

--- Iteration: ( 1/10) Internal Cycle: (1/1)
--------------------------------------------------------------------------------

---SELF-CONSISTENT-FIELD CONVERGENCE--------------------------------------------

     iter   Etot(hartree)      deltaE(h)  residm     vres2
 ETOT  1  -1465.3080155209    -1.465E+03 4.351E-02 4.466E+06
 ETOT  2  -111.42474619769     1.354E+03 1.351E-01 6.413E+07
 ETOT  3  -1483.2871999938    -1.372E+03 4.604E-01 4.926E+06
 ETOT  4  -1591.4853553725    -1.082E+02 1.045E-01 2.759E+05
 ETOT  5  -1564.1632003971     2.732E+01 2.798E-02 2.015E+06
 ETOT  6  -1599.2289449520    -3.507E+01 7.618E-03 5.956E+05
 ETOT  7  -1606.9170415339    -7.688E+00 1.203E-02 2.858E+05
 ETOT  8  -1612.5586947590    -5.642E+00 4.069E-03 5.916E+04
 ETOT  9  -1613.4172518236    -8.586E-01 3.783E-02 2.287E+04
 ETOT 10  -1607.6297892453     5.787E+00 2.565E-02 2.694E+05
 ETOT 11  -1613.7155401377    -6.086E+00 2.897E-03 2.017E+04
 ETOT 12  -1614.1339710850    -4.184E-01 6.341E-03 2.909E+03
 ETOT 13  -1614.2112470270    -7.728E-02 3.472E-04 9.963E+02
 ETOT 14  -1614.1644792309     4.677E-02 1.194E-03 2.683E+03
 ETOT 15  -1614.2178436241    -5.336E-02 2.201E-04 1.066E+03
 ETOT 16  -1614.2417404890    -2.390E-02 3.368E-04 1.461E+02
 ETOT 17  -1614.2430234307    -1.283E-03 7.326E-05 1.157E+02
 ETOT 18  -1614.2463257134    -3.302E-03 2.416E-04 1.860E+01
 ETOT 19  -1614.2467619021    -4.362E-04 5.569E-05 1.229E+01
 ETOT 20  -1614.2470719332    -3.100E-04 1.276E-04 1.374E+00

 Cartesian components of stress tensor (hartree/bohr^3)
  sigma(1 1)= -3.92334816E-03  sigma(3 2)=  2.36845412E-05
  sigma(2 2)= -3.92334816E-03  sigma(3 1)=  2.36845412E-05
  sigma(3 3)= -2.37982523E-02  sigma(2 1)=  1.74230392E-04


 scprqt:  WARNING -
  nstep=   20 was not enough SCF cycles to converge;
  maximum energy difference=  3.100E-04 exceeds toldfe=  1.000E-04

 Integrated electronic density in atomic spheres:
 ------------------------------------------------
 Atom  Sphere_radius  Integrated_density
    1        2.00000         12.53711625
    2        2.00000          1.95151439
    3        2.00000          1.88120072
    4        2.00000          0.67964007
    5        2.00000          0.65133863
    6        2.00000          0.85119871
    7        2.00000          6.77250188
    8        2.00000          6.02662919
    9        2.00000          6.02262949
   10        2.00000          6.77250188
   11        2.00000          6.02662919
   12        2.00000          6.02262949
   13        2.00000          6.78327118
   14        2.00000          6.02655532
   15        2.00000          6.02432401
   16        2.00000          6.76635808
   17        2.00000          6.02702866
   18        2.00000          6.02094943
   19        2.00000         13.36016426
   20        2.00000         13.29471309
   21        2.00000         14.06281882
   22        2.00000         13.68623646
   23        2.00000         13.33532992
   24        2.00000         13.28557148
   25        2.00000         13.34001028
   26        2.00000         13.32246953
   27        2.00000         13.31497933
   28        2.00000         13.34001028
   29        2.00000         13.32246953
   30        2.00000         13.31497933

---OUTPUT-----------------------------------------------------------------------

 Cartesian coordinates (xcart) [bohr]
  0.00000000000000E+00  0.00000000000000E+00  0.00000000000000E+00
  0.00000000000000E+00  0.00000000000000E+00  5.59110000000000E+00
  0.00000000000000E+00  0.00000000000000E+00  1.11822000000000E+01
  4.34040000000000E+00  4.34040000000000E+00  2.79560000000000E+00
  4.34040000000000E+00  4.34040000000000E+00  8.38660000000000E+00
  4.34040000000000E+00  4.34040000000000E+00  1.39778000000000E+01
  6.51060000000000E+00  2.17020000000000E+00  0.00000000000000E+00
  6.51060000000000E+00  2.17020000000000E+00  5.59110000000000E+00
  6.51060000000000E+00  2.17020000000000E+00  1.11822000000000E+01
  2.17020000000000E+00  6.51060000000000E+00  0.00000000000000E+00
  2.17020000000000E+00  6.51060000000000E+00  5.59110000000000E+00
  2.17020000000000E+00  6.51060000000000E+00  1.11822000000000E+01
  2.17020000000000E+00  2.17020000000000E+00  0.00000000000000E+00
  2.17020000000000E+00  2.17020000000000E+00  5.59110000000000E+00
  2.17020000000000E+00  2.17020000000000E+00  1.11822000000000E+01
  6.51060000000000E+00  6.51060000000000E+00  0.00000000000000E+00
  6.51060000000000E+00  6.51060000000000E+00  5.59110000000000E+00
  6.51060000000000E+00  6.51060000000000E+00  1.11822000000000E+01
  0.00000000000000E+00  0.00000000000000E+00  2.51257000000000E+01
  0.00000000000000E+00  0.00000000000000E+00  3.24781000000000E+01
  0.00000000000000E+00  0.00000000000000E+00  3.98305000000000E+01
  4.34040000000000E+00  4.34040000000000E+00  1.77733000000000E+01
  4.34040000000000E+00  4.34040000000000E+00  2.51257000000000E+01
  4.34040000000000E+00  4.34040000000000E+00  3.24781000000000E+01
  4.34040000000000E+00  6.64200000000000E-01  2.14495000000000E+01
  4.34040000000000E+00  6.64200000000000E-01  2.88019000000000E+01
  4.34040000000000E+00  6.64200000000000E-01  3.61543000000000E+01
  6.64200000000000E-01  4.34040000000000E+00  2.14495000000000E+01
  6.64200000000000E-01  4.34040000000000E+00  2.88019000000000E+01
  6.64200000000000E-01  4.34040000000000E+00  3.61543000000000E+01
 Reduced coordinates (xred)
  0.00000000000000E+00  0.00000000000000E+00  0.00000000000000E+00
  0.00000000000000E+00  0.00000000000000E+00  1.36936076414401E-01
  0.00000000000000E+00  0.00000000000000E+00  2.73872152828802E-01
  5.00000000000000E-01  5.00000000000000E-01  6.84692627969630E-02
  5.00000000000000E-01  5.00000000000000E-01  2.05402890031839E-01
  5.00000000000000E-01  5.00000000000000E-01  3.42341415625765E-01
  7.50000000000000E-01  2.50000000000000E-01  0.00000000000000E+00
  7.50000000000000E-01  2.50000000000000E-01  1.36936076414401E-01
  7.50000000000000E-01  2.50000000000000E-01  2.73872152828802E-01
  2.50000000000000E-01  7.50000000000000E-01  0.00000000000000E+00
  2.50000000000000E-01  7.50000000000000E-01  1.36936076414401E-01
  2.50000000000000E-01  7.50000000000000E-01  2.73872152828802E-01
  2.50000000000000E-01  2.50000000000000E-01  0.00000000000000E+00
  2.50000000000000E-01  2.50000000000000E-01  1.36936076414401E-01
  2.50000000000000E-01  2.50000000000000E-01  2.73872152828802E-01
  7.50000000000000E-01  7.50000000000000E-01  0.00000000000000E+00
  7.50000000000000E-01  7.50000000000000E-01  1.36936076414401E-01
  7.50000000000000E-01  7.50000000000000E-01  2.73872152828802E-01
  0.00000000000000E+00  0.00000000000000E+00  6.15373499877541E-01
  0.00000000000000E+00  0.00000000000000E+00  7.95446975263287E-01
  0.00000000000000E+00  0.00000000000000E+00  9.75520450649033E-01
  5.00000000000000E-01  5.00000000000000E-01  4.35300024491795E-01
  5.00000000000000E-01  5.00000000000000E-01  6.15373499877541E-01
  5.00000000000000E-01  5.00000000000000E-01  7.95446975263287E-01
  5.00000000000000E-01  7.65136853746199E-02  5.25336762184668E-01
  5.00000000000000E-01  7.65136853746199E-02  7.05410237570414E-01
  5.00000000000000E-01  7.65136853746199E-02  8.85483712956160E-01
  7.65136853746199E-02  5.00000000000000E-01  5.25336762184668E-01
  7.65136853746199E-02  5.00000000000000E-01  7.05410237570414E-01
  7.65136853746199E-02  5.00000000000000E-01  8.85483712956160E-01
 Cartesian forces (fcart) [Ha/bohr]; max,rms= 7.28361E+01 1.08079E+01 (free atoms)
  8.41379432743627E-03  8.41379432743627E-03  7.20971550184799E+01
  5.23903508175175E-04  5.23903508175175E-04 -2.25536470040541E-02
 -2.04267965503294E-05 -2.04267965503298E-05  4.36022206895358E-02
 -1.83640468218404E-03 -1.83640468218404E-03 -2.69509850621322E-03
 -1.52239250446718E-04 -1.52239250446719E-04 -7.36121456093979E-04
 -1.06759284717932E-03 -1.06759284717932E-03 -4.95923959399648E-01
 -7.43377214128022E-01  7.50190742825471E-01  3.13629932913366E-02
 -5.26581441982883E-01  5.26231010869469E-01  8.07833403481779E-03
 -5.21751209046862E-01  5.22469624497854E-01 -6.82948701150606E-03
  7.50190742825471E-01 -7.43377214128022E-01  3.13629932913366E-02
  5.26231010869469E-01 -5.26581441982883E-01  8.07833403481779E-03
  5.22469624497854E-01 -5.21751209046862E-01 -6.82948701150606E-03
  7.48304973269484E-01  7.48304973269484E-01  4.46978961502852E-02
  5.26219455048377E-01  5.26219455048377E-01  8.11044893494594E-03
  5.21789427312913E-01  5.21789427312913E-01 -3.86564081648173E-03
 -7.44813458327935E-01 -7.44813458327935E-01  1.86809621509357E-02
 -5.26422283386334E-01 -5.26422283386334E-01  7.62892931987251E-03
 -5.22181192947190E-01 -5.22181192947190E-01 -9.93490572490730E-03
  1.64878115098041E-02  1.64878115098041E-02 -4.30415477334826E-05
  1.27031448168231E-02  1.27031448168231E-02  4.49882220486536E-02
  1.14205505711942E-02  1.14205505711942E-02 -7.28361310636319E+01
  3.88505571720836E-02  3.88505571720836E-02  7.83650857602271E-01
  5.60463061457682E-03  5.60463061457682E-03 -9.54323747962468E-03
  2.28855807045811E-02  2.28855807045811E-02 -9.18527031219357E-03
 -1.39836507311754E-02 -3.41144052561038E-02  1.20212770307694E-01
  8.72982073092372E-03 -3.55907476686153E-02 -6.53669341937337E-03
  4.54147259682764E-03 -5.34742333245124E-02  2.47607980482493E-02
 -3.41144052561038E-02 -1.39836507311754E-02  1.20212770307694E-01
 -3.55907476686153E-02  8.72982073092372E-03 -6.53669341937337E-03
 -5.34742333245124E-02  4.54147259682764E-03  2.47607980482493E-02
 Reduced forces (fred)
 -7.30384657976088E-02 -7.30384657976088E-02 -2.94372683940453E+03
 -4.54790157376706E-03 -4.54790157376705E-03  9.20865407175528E-01
  1.77320935494100E-04  1.77320935494103E-04 -1.78027867075375E+00
  1.59414617651032E-02  1.59414617651032E-02  1.10040872008686E-01
  1.32155848527787E-03  1.32155848527788E-03  3.00558390523172E-02
  9.26755998779422E-03  9.26755998779423E-03  2.02485752622876E+01
  6.45310892040253E+00 -6.51225580031935E+00 -1.28055101608527E+00
  4.57114818156501E+00 -4.56810615915569E+00 -3.29838378641610E-01
  4.52921789549400E+00 -4.53545431634097E+00  2.78847954679792E-01
 -6.51225580031935E+00  6.45310892040253E+00 -1.28055101608527E+00
 -4.56810615915569E+00  4.57114818156501E+00 -3.29838378641610E-01
 -4.53545431634097E+00  4.52921789549400E+00  2.78847954679792E-01
 -6.49588581195774E+00 -6.49588581195774E+00 -1.82501509981614E+00
 -4.56800584538395E+00 -4.56800584538395E+00 -3.31149630013843E-01
 -4.52954966061794E+00 -4.52954966061794E+00  1.57834114536949E-01
  6.46557666905314E+00  6.46557666905314E+00 -7.62743684622706E-01
  4.56976655762009E+00  4.56976655762009E+00 -3.11489184130395E-01
  4.53295049973597E+00  4.53295049973597E+00  4.05642200747965E-01
 -1.43127394154307E-01 -1.43127394154307E-01  1.75738639395810E-03
 -1.10273459525878E-01 -1.10273459525878E-01 -1.83686910624653E+00
 -9.91395153984229E-02 -9.91395153984229E-02  2.97389923132809E+03
 -3.37253916699423E-01 -3.37253916699423E-01 -3.19964645159007E+01
 -4.86526774390185E-02 -4.86526774390185E-02  3.89650386293076E-01
 -1.98665148980328E-01 -1.98665148980328E-01  3.75034586846864E-01
  1.21389275267187E-01  2.96140329147186E-01 -4.90828741166313E+00
 -7.57818278010026E-02  3.08956162361715E-01  2.66893192313015E-01
 -3.94236153185413E-02  4.64199124643427E-01 -1.01098338431002E+00
  2.96140329147186E-01  1.21389275267187E-01 -4.90828741166313E+00
  3.08956162361715E-01 -7.57818278010026E-02  2.66893192313015E-01
  4.64199124643427E-01 -3.94236153185413E-02 -1.01098338431002E+00
 Scale of Primitive Cell (acell) [bohr]
  8.68080000000000E+00  8.68080000000000E+00  4.08300000000000E+01
 Real space primitive translations (rprimd) [bohr]
  8.68080000000000E+00  0.00000000000000E+00  0.00000000000000E+00
  0.00000000000000E+00  8.68080000000000E+00  0.00000000000000E+00
  0.00000000000000E+00  0.00000000000000E+00  4.08300000000000E+01
 Unitary Cell Volume (ucvol) [Bohr^3]=  3.07679726517120E+03
 Angles (23,13,12)= [degrees]
  9.00000000000000E+01  9.00000000000000E+01  9.00000000000000E+01
 Lengths [Bohr]
  8.68080000000000E+00  8.68080000000000E+00  4.08300000000000E+01
 Stress tensor in cartesian coordinates (strten) [Ha/bohr^3]
 -3.92334815875094E-03  1.74230392182118E-04  2.36845411835690E-05
  1.74230392182118E-04 -3.92334815875094E-03  2.36845411835690E-05
  2.36845411835690E-05  2.36845411835690E-05 -2.37982523352878E-02
 Total energy (etotal) [Ha]= -1.61424707193322E+03

--- Iteration: ( 2/10) Internal Cycle: (1/1)
--------------------------------------------------------------------------------

---SELF-CONSISTENT-FIELD CONVERGENCE--------------------------------------------

     iter   Etot(hartree)      deltaE(h)  residm     vres2
 ETOT  1   18164.500643479     1.816E+04 1.565E+06 1.872E+09
 ETOT  2   17252.272632120    -9.122E+02 4.433E+05 1.596E+09
 ETOT  3   674.32111067838    -1.658E+04 3.979E+05 1.689E+08
 ETOT  4   887.04016158255     2.127E+02 4.945E+04 1.795E+08
 ETOT  5   3454.7698421261     2.568E+03 9.256E+02 4.288E+08
 ETOT  6   5098.5935622605     1.644E+03 4.872E+01 5.727E+08
 ETOT  7  -715.04097878110    -5.814E+03 1.402E+02 6.845E+07
 ETOT  8  -280.07649448988     4.350E+02 3.581E+00 1.058E+08
 ETOT  9  -1151.3036349097    -8.712E+02 5.797E-01 3.305E+07
 ETOT 10   2753.4900504856     3.905E+03 2.906E+00 3.851E+08
 ETOT 11   6443.3697598895     3.690E+03 8.815E-01 7.085E+08
 ETOT 12   7170.1936049509     7.268E+02 1.357E-01 7.696E+08
 ETOT 13   7662.5818242694     4.924E+02 1.989E-01 8.101E+08
 ETOT 14   7426.5660893486    -2.360E+02 2.466E-01 7.868E+08
 ETOT 15   6542.7048025794    -8.839E+02 4.176E-01 7.034E+08
 ETOT 16   5762.9374082933    -7.798E+02 1.811E+00 6.274E+08
 ETOT 17   301.99201119400    -5.461E+03 2.674E+00 1.582E+08
 ETOT 18  -546.22211363310    -8.482E+02 2.864E-01 8.273E+07
 ETOT 19   427.02791023228     9.733E+02 5.484E-01 1.666E+08
 ETOT 20  -743.76041912085    -1.171E+03 6.280E-01 7.238E+07

 Cartesian components of stress tensor (hartree/bohr^3)
  sigma(1 1)= -2.74079612E-01  sigma(3 2)=  1.08149404E-03
  sigma(2 2)= -2.74079612E-01  sigma(3 1)=  1.08149404E-03
  sigma(3 3)=  3.26356460E-01  sigma(2 1)= -6.69923557E-04


 scprqt:  WARNING -
  nstep=   20 was not enough SCF cycles to converge;
  maximum energy difference=  1.171E+03 exceeds toldfe=  1.000E-04

 Integrated electronic density in atomic spheres:
 ------------------------------------------------
 Atom  Sphere_radius  Integrated_density
    1        2.00000          8.22200157
    2        2.00000          2.17812260
    3        2.00000          1.26006817
    4        2.00000          0.99197919
    5        2.00000          0.83037107
    6        2.00000          0.34049117
    7        2.00000          7.48560776
    8        2.00000          6.04484750
    9        2.00000          4.97951217
   10        2.00000          7.48560776
   11        2.00000          6.04484750
   12        2.00000          4.97951217
   13        2.00000          7.48936313
   14        2.00000          6.13654664
   15        2.00000          5.04272840
   16        2.00000          7.51268874
   17        2.00000          6.19668610
   18        2.00000          4.99645622
   19        2.00000         11.52572943
   20        2.00000         14.05170457
   21        2.00000         12.47238280
   22        2.00000          8.54620758
   23        2.00000         11.49172073
   24        2.00000         14.00061084
   25        2.00000         10.18729554
   26        2.00000         13.91369219
   27        2.00000         13.27472284
   28        2.00000         10.18729554
   29        2.00000         13.91369219
   30        2.00000         13.27472284

---OUTPUT-----------------------------------------------------------------------

 Cartesian coordinates (xcart) [bohr]
 -9.93349718984442E-02 -9.93349718984442E-02  1.04471613889088E+02
 -7.77557993118153E-03 -7.77557993118153E-03  8.06904310059039E+00
 -1.65577838500913E-02 -1.65577838500913E-02  1.62666329563254E+01
  3.55334541748430E+00  3.55334541748430E+00  4.03424443034642E+00
  3.54648523755950E+00  3.54648523755950E+00  1.21386589727143E+01
  3.53822579170062E+00  3.53822579170062E+00  1.95229855202986E+01
  4.75971976077741E+00  2.36370765423681E+00  3.26451664565864E-02
  4.93405765710515E+00  2.16708740906470E+00  8.10064110118722E+00
  4.92989496885382E+00  2.15569365710304E+00  1.61807632760015E+01
  2.36370765423681E+00  4.75971976077741E+00  3.26451664565864E-02
  2.16708740906470E+00  4.93405765710515E+00  8.10064110118722E+00
  2.15569365710304E+00  4.92989496885382E+00  1.61807632760015E+01
  2.39299962336179E+00  2.39299962336179E+00  5.61682872910262E-02
  2.20271327914207E+00  2.20271327914207E+00  8.10553187709717E+00
  2.19086007406295E+00  2.19086007406295E+00  1.61899168769725E+01
  4.72770290198392E+00  4.72770290198392E+00  1.00778725155962E-02
  4.89855343068125E+00  4.89855343068125E+00  8.09514522079559E+00
  4.89381845331690E+00  4.89381845331690E+00  1.61714078025004E+01
 -2.35028496533896E-02 -2.35028496533896E-02  3.64080254160373E+01
 -3.75061286207125E-02 -3.75061286207125E-02  4.71272080257306E+01
  5.79976801606880E-02  5.79976801606880E-02 -4.78265028438758E+01
  3.56347915028765E+00  3.56347915028765E+00  2.68768526890435E+01
  3.52655384569682E+00  3.52655384569682E+00  3.63815003117157E+01
  3.52988941403850E+00  3.52988941403850E+00  4.70358874624151E+01
  3.55578372409629E+00  4.44798213288832E-01  3.12480664404264E+01
  3.56402325098525E+00  4.32678587961525E-01  4.17182895135314E+01
  3.54985765146848E+00  4.06986591802164E-01  5.24175927116023E+01
  4.44798213288832E-01  3.55578372409629E+00  3.12480664404264E+01
  4.32678587961525E-01  3.56402325098525E+00  4.17182895135314E+01
  4.06986591802164E-01  3.54985765146848E+00  5.24175927116023E+01
 Reduced coordinates (xred)
  9.69241812671215E-04  9.69241812671216E-04  1.76578875871859E+00
  6.03519846298941E-05  6.03519846298949E-05  1.36383697109869E-01
 -2.35310069928113E-06 -2.35310069928035E-06  2.74940049490314E-01
  4.99788452137800E-01  4.99788452137800E-01  6.84032549961741E-02
  4.99982462532204E-01  4.99982462532204E-01  2.05384861095859E-01
  4.99877016767213E-01  4.99877016767213E-01  3.30195347553278E-01
  6.64365356404016E-01  3.36419539999248E-01  7.68136010074389E-04
  6.89339526082517E-01  3.10620105389995E-01  1.37133929317532E-01
  6.89895953247758E-01  3.10186805881699E-01  2.73704886431264E-01
  3.36419539999248E-01  6.64365356404016E-01  7.68136010074389E-04
  3.10620105389995E-01  6.89339526082517E-01  1.37133929317532E-01
  3.10186805881699E-01  6.89895953247758E-01  2.73704886431264E-01
  3.36202305463723E-01  3.36202305463723E-01  1.09473172055562E-03
  3.10618774196892E-01  3.10618774196892E-01  1.37134715869090E-01
  3.10108449372513E-01  3.10108449372513E-01  2.73777476345421E-01
  6.64199905731277E-01  6.64199905731277E-01  4.57530300047427E-04
  6.89357860636539E-01  6.89357860636539E-01  1.37122922589270E-01
  6.89846420497283E-01  6.89846420497283E-01  2.73628829151974E-01
  1.89934240044743E-03  1.89934240044743E-03  6.15372445712767E-01
  1.46336107465017E-03  1.46336107465017E-03  7.96548817586301E-01
  1.31561037821333E-03  1.31561037821333E-03 -8.08367158061031E-01
  5.04475458157322E-01  5.04475458157322E-01  4.54493040842573E-01
  5.00645635265710E-01  5.00645635265710E-01  6.15139768859181E-01
  5.02636344657702E-01  5.02636344657702E-01  7.95222011503498E-01
  4.98389128797902E-01  7.25838165542227E-02  5.28280988741310E-01
  5.01005647029182E-01  7.24137466974685E-02  7.05250142213584E-01
  5.00523162910887E-01  7.03536271628753E-02  8.86090149352149E-01
  7.25838165542227E-02  4.98389128797902E-01  5.28280988741310E-01
  7.24137466974685E-02  5.01005647029182E-01  7.05250142213584E-01
  7.03536271628753E-02  5.00523162910887E-01  8.86090149352149E-01
 Cartesian forces (fcart) [Ha/bohr]; max,rms= 4.80263E+01 7.93773E+00 (free atoms)
 -9.32639232238620E-02 -9.32639232238620E-02 -4.80262596578164E+01
  4.84292070698106E-02  4.84292070698106E-02  2.63778796512180E+01
  2.09596468468936E-02  2.09596468468936E-02  1.03760144159552E+01
  4.04155453688356E-02  4.04155453688356E-02  2.20209299724035E+01
  1.81033565655939E-02  1.81033565655939E-02  1.31730950197130E+01
  9.88053003508446E-03  9.88053003508447E-03  2.93451791163958E+00
  1.00930449383923E+00 -1.03006291874058E+00 -2.05518511106945E+00
 -8.39506035102858E-02  6.14189408820208E-02 -1.00820291111962E+01
  7.37276467945891E-01 -7.59637224832287E-01 -7.08411843770809E+00
 -1.03006291874058E+00  1.00930449383923E+00 -2.05518511106945E+00
  6.14189408820208E-02 -8.39506035102858E-02 -1.00820291111962E+01
 -7.59637224832287E-01  7.37276467945891E-01 -7.08411843770809E+00
 -1.03229002479969E+00 -1.03229002479969E+00 -2.21973704843761E+00
  1.14258301096779E-01  1.14258301096779E-01 -1.00767383142447E+01
 -6.86604441379562E-01 -6.86604441379562E-01 -7.10728459033190E+00
  1.02175920034199E+00  1.02175920034199E+00 -2.02252935060678E+00
 -1.64359430362530E-01 -1.64359430362530E-01 -1.00083298368527E+01
  6.54762252077354E-01  6.54762252077354E-01 -7.13642294171812E+00
  2.55456417349759E-02  2.55456417349759E-02  6.48155579795069E+00
  5.47934206249777E-02  5.47934206249777E-02  2.17032762273104E+01
 -2.25824103546513E-02 -2.25824103546513E-02 -1.21232377492818E+01
  9.44736161901369E-02  9.44736161901369E-02  5.06332012560999E+00
 -5.74830338433867E-02 -5.74830338433867E-02  6.97360677214542E+00
 -1.20684293546754E-02 -1.20684293546754E-02 -2.24657226951450E+00
  7.68471530084625E-02 -6.35802034408345E-02  1.31641564891664E+01
 -3.07886090208837E-01  2.84963729591205E-01 -7.00085670586134E+00
  4.41562081210300E-01 -4.00984850378348E-01  5.98949080909808E+00
 -6.35802034408345E-02  7.68471530084625E-02  1.31641564891664E+01
  2.84963729591205E-01 -3.07886090208837E-01 -7.00085670586134E+00
 -4.00984850378348E-01  4.41562081210300E-01  5.98949080909808E+00
 Reduced forces (fred)
  4.95417112031955E-02  4.95417112031955E-02  2.84142834524291E+03
 -7.31597603660835E-03 -7.31597603660835E-03 -1.56062270128219E+03
 -1.64695977278912E-02 -1.64695977278913E-02 -6.13887006835416E+02
 -6.00508110300112E-03 -6.00508110300112E-03 -1.30284783001461E+03
  3.96387872976246E-02  3.96387872976246E-02 -7.79374639279462E+02
 -3.27934858531514E-02 -3.27934858531515E-02 -1.73617480668479E+02
 -7.40234280934632E+00  7.49752407657434E+00  1.21592319603870E+02
  4.82273843815512E-01 -5.79813765975367E-01  5.96494741333324E+02
 -5.47934883198818E+00  5.45728505974020E+00  4.19125494312159E+02
  7.49752407657434E+00 -7.40234280934632E+00  1.21592319603870E+02
 -5.79813765975367E-01  4.82273843815512E-01  5.96494741333324E+02
  5.45728505974020E+00 -5.47934883198818E+00  4.19125494312159E+02
  7.31937854218724E+00  7.31937854218724E+00  1.31204957115677E+02
 -9.42174650885837E-01 -9.42174650885837E-01  5.96196818735847E+02
  4.79629502230112E+00  4.79629502230112E+00  4.20414833116618E+02
 -7.29868373575677E+00 -7.29868373575677E+00  1.19784456421190E+02
  1.04188270836625E+00  1.04188270836625E+00  5.92115955137068E+02
 -4.75183594022339E+00 -4.75183594022339E+00  4.22300182493814E+02
 -9.89264837649348E-02 -9.89264837649348E-02 -3.83473574889499E+02
 -1.12408947938505E-01 -1.12408947938505E-01 -1.28405234162012E+03
  5.67155840432780E-03  5.67155840432777E-03  7.17260040044240E+02
 -6.07691862692418E-01 -6.07691862692419E-01 -2.99556374158077E+02
  4.98359897920759E-01  4.98359897920759E-01 -4.12595411954154E+02
  5.71663301943866E-02  5.71663301943866E-02  1.32915401746466E+02
 -3.91823386687705E-01  6.34155995609781E-01 -7.78847177573258E+02
  2.15774836653973E+00 -2.17368467680207E+00  4.14199339253031E+02
 -3.14567662196760E+00  3.01007395459529E+00 -3.54361531605037E+02
  6.34155995609781E-01 -3.91823386687705E-01 -7.78847177573258E+02
 -2.17368467680207E+00  2.15774836653973E+00  4.14199339253031E+02
  3.01007395459529E+00 -3.14567662196760E+00 -3.54361531605037E+02
 Scale of Primitive Cell (acell) [bohr]
  7.21265257830586E+00  7.21265257830586E+00  5.91643514516715E+01
 Real space primitive translations (rprimd) [bohr]
  7.21202744317810E+00 -9.40944424669376E-02 -1.27910157914566E-02
 -9.40944424669376E-02  7.21202744317810E+00 -1.27910157914566E-02
 -6.01623323616685E-02 -6.01623323616685E-02  5.91642902744927E+01
 Unitary Cell Volume (ucvol) [Bohr^3]=  3.07679726517120E+03
 Angles (23,13,12)= [degrees]
  9.01591063282663E+01  9.01591063282663E+01  9.14947923141832E+01
 Lengths [Bohr]
  7.21265257830586E+00  7.21265257830586E+00  5.91643514516715E+01
 Stress tensor in cartesian coordinates (strten) [Ha/bohr^3]
 -2.74079611547607E-01 -6.69923556613864E-04  1.08149403712403E-03
 -6.69923556613864E-04 -2.74079611547607E-01  1.08149403712403E-03
  1.08149403712403E-03  1.08149403712403E-03  3.26356459864962E-01
 Total energy (etotal) [Ha]= -7.43760419120849E+02

 Difference of energy with previous step (new-old):
           Absolute (Ha)= 8.70487E+02
           Relative     = 7.38324E-01
