  ABINIT 8.6.3
  
  Give name for formatted input file: 
PdGeomOpt.in
  Give name for formatted output file:
PdGeomOpt.out
  Give root name for generic input files:
PdGeomOpt_i
  Give root name for generic output files:
PdGeomOpt_o
  Give root name for generic temporary files:
PdGeomOpt

--- !COMMENT
src_file: isfile.F90
src_line: 109
message: |
    Output file PdGeomOpt.out
     already exists.
...


--- !COMMENT
src_file: isfile.F90
src_line: 133
message: |
    Renaming old PdGeomOpt.out to PdGeomOpt.out0003
...


.Version 8.6.3 of ABINIT 
.(sequential version, prepared for a x86_64_linux_gnu5.4 computer) 

.Copyright (C) 1998-2017 ABINIT group . 
 ABINIT comes with ABSOLUTELY NO WARRANTY.
 It is free software, and you are welcome to redistribute it
 under certain conditions (GNU General Public License,
 see ~abinit/COPYING or http://www.gnu.org/copyleft/gpl.txt).

 ABINIT is a project of the Universite Catholique de Louvain,
 Corning Inc. and other collaborators, see ~abinit/doc/developers/contributors.txt .
 Please read ~abinit/doc/users/acknowledgments.html for suggested
 acknowledgments of the ABINIT effort.
 For more information, see https://www.abinit.org .

.Starting date : Sat 21 Apr 2018.
- ( at 08h59 )
  

 ++++++++++++++++++++++++++++++++++++++++++++++++++++++++++++++++++++++++++++++

 === Build Information === 
  Version       : 8.6.3
  Build target  : x86_64_linux_gnu5.4
  Build date    : 20180412

 === Compiler Suite === 
  C compiler       : gnu5.4
  C++ compiler     : gnu5.4
  Fortran compiler : gnu5.4
  CFLAGS           :  -g -O2 -mtune=native -march=native
  CXXFLAGS         :  -g -O2 -mtune=native -march=native
  FCFLAGS          :  -g -ffree-line-length-none
  FC_LDFLAGS       : 

 === Optimizations === 
  Debug level        : basic
  Optimization level : standard
  Architecture       : unknown_unknown

 === Multicore === 
  Parallel build : no
  Parallel I/O   : no
  openMP support : no
  GPU support    : no

 === Connectors / Fallbacks === 
  Connectors on : yes
  Fallbacks on  : yes
  DFT flavor    : none
  FFT flavor    : none
  LINALG flavor : netlib-fallback
  MATH flavor   : none
  TIMER flavor  : abinit
  TRIO flavor   : none

 === Experimental features === 
  Bindings            : @enable_bindings@
  Exports             : no
  GW double-precision : no

 ++++++++++++++++++++++++++++++++++++++++++++++++++++++++++++++++++++++++++++++


 ++++++++++++++++++++++++++++++++++++++++++++++++++++++++++++++++++++++++++++++
 Default optimizations:
   -O2 -mtune=native -march=native


 Optimizations for 20_datashare:
   -O0


 ++++++++++++++++++++++++++++++++++++++++++++++++++++++++++++++++++++++++++++++


 ++++++++++++++++++++++++++++++++++++++++++++++++++++++++++++++++++++++++++++++
 CPP options activated during the build:

                    CC_GNU                   CXX_GNU                    FC_GNU
 
 HAVE_FC_ALLOCATABLE_DT...             HAVE_FC_ASYNC         HAVE_FC_BACKTRACE
 
  HAVE_FC_COMMAND_ARGUMENT      HAVE_FC_COMMAND_LINE        HAVE_FC_CONTIGUOUS
 
           HAVE_FC_CPUTIME              HAVE_FC_EXIT             HAVE_FC_FLUSH
 
             HAVE_FC_GAMMA            HAVE_FC_GETENV   HAVE_FC_IEEE_EXCEPTIONS
 
          HAVE_FC_INT_QUAD             HAVE_FC_IOMSG     HAVE_FC_ISO_C_BINDING
 
  HAVE_FC_ISO_FORTRAN_2008        HAVE_FC_LONG_LINES        HAVE_FC_MOVE_ALLOC
 
           HAVE_FC_PRIVATE         HAVE_FC_PROTECTED         HAVE_FC_STREAM_IO
 
            HAVE_FC_SYSTEM          HAVE_FORTRAN2003        HAVE_LIBPAW_ABINIT
 
      HAVE_LIBTETRA_ABINIT             HAVE_OS_LINUX         HAVE_TIMER_ABINIT
 
              USE_MACROAVE                                                      
 ++++++++++++++++++++++++++++++++++++++++++++++++++++++++++++++++++++++++++++++

- input  file    -> PdGeomOpt.in
- output file    -> PdGeomOpt.out
- root for input  files -> PdGeomOpt_i
- root for output files -> PdGeomOpt_o

-instrng: 89 lines of input have been read from file PdGeomOpt.in


 Please give name of formatted atomic psp file
 iofn2 : for atom type 1, psp file is ../../../Psps_for_tests/Pd.psp8
  read the values zionpsp= 18.0 , pspcod=   8 , lmax=   2

 inpspheads: deduce mpsang = 3, n1xccc = 2501.
 invars1 : treat image number: 1

 symlatt : the Bravais lattice is cF (face-centered cubic)
  xred   is defined in input file
 ingeo : takes atomic coordinates from input array xred
 symfind : exit, nsym=48
   symrel matrices, symafm and tnons are :
   1       1   0   0     0   1   0     0   0   1       1      0.0000  0.0000  0.0000
   2      -1   0   0     0  -1   0     0   0  -1       1      0.0000  0.0000  0.0000
   3       0  -1   1     0  -1   0     1  -1   0       1      0.0000  0.0000  0.0000
   4       0   1  -1     0   1   0    -1   1   0       1      0.0000  0.0000  0.0000
   5      -1   0   0    -1   0   1    -1   1   0       1      0.0000  0.0000  0.0000
   6       1   0   0     1   0  -1     1  -1   0       1      0.0000  0.0000  0.0000
   7       0   1  -1     1   0  -1     0   0  -1       1      0.0000  0.0000  0.0000
   8       0  -1   1    -1   0   1     0   0   1       1      0.0000  0.0000  0.0000
   9      -1   0   0    -1   1   0    -1   0   1       1      0.0000  0.0000  0.0000
  10       1   0   0     1  -1   0     1   0  -1       1      0.0000  0.0000  0.0000
  11       0  -1   1     1  -1   0     0  -1   0       1      0.0000  0.0000  0.0000
  12       0   1  -1    -1   1   0     0   1   0       1      0.0000  0.0000  0.0000
  13       1   0   0     0   0   1     0   1   0       1      0.0000  0.0000  0.0000
  14      -1   0   0     0   0  -1     0  -1   0       1      0.0000  0.0000  0.0000
  15       0   1  -1     0   0  -1     1   0  -1       1      0.0000  0.0000  0.0000
  16       0  -1   1     0   0   1    -1   0   1       1      0.0000  0.0000  0.0000
  17      -1   0   1    -1   1   0    -1   0   0       1      0.0000  0.0000  0.0000
  18       1   0  -1     1  -1   0     1   0   0       1      0.0000  0.0000  0.0000
  19       0  -1   0     1  -1   0     0  -1   1       1      0.0000  0.0000  0.0000
  20       0   1   0    -1   1   0     0   1  -1       1      0.0000  0.0000  0.0000
  21       1   0  -1     0   0  -1     0   1  -1       1      0.0000  0.0000  0.0000
  22      -1   0   1     0   0   1     0  -1   1       1      0.0000  0.0000  0.0000
  23       0   1   0     0   0   1     1   0   0       1      0.0000  0.0000  0.0000
  24       0  -1   0     0   0  -1    -1   0   0       1      0.0000  0.0000  0.0000
  25       1   0  -1     0   1  -1     0   0  -1       1      0.0000  0.0000  0.0000
  26      -1   0   1     0  -1   1     0   0   1       1      0.0000  0.0000  0.0000
  27       0  -1   0     0  -1   1     1  -1   0       1      0.0000  0.0000  0.0000
  28       0   1   0     0   1  -1    -1   1   0       1      0.0000  0.0000  0.0000
  29      -1   0   1    -1   0   0    -1   1   0       1      0.0000  0.0000  0.0000
  30       1   0  -1     1   0   0     1  -1   0       1      0.0000  0.0000  0.0000
  31       0   1   0     1   0   0     0   0   1       1      0.0000  0.0000  0.0000
  32       0  -1   0    -1   0   0     0   0  -1       1      0.0000  0.0000  0.0000
  33       0   0  -1     0   1  -1     1   0  -1       1      0.0000  0.0000  0.0000
  34       0   0   1     0  -1   1    -1   0   1       1      0.0000  0.0000  0.0000
  35       1  -1   0     0  -1   1     0  -1   0       1      0.0000  0.0000  0.0000
  36      -1   1   0     0   1  -1     0   1   0       1      0.0000  0.0000  0.0000
  37       0   0   1     1   0   0     0   1   0       1      0.0000  0.0000  0.0000
  38       0   0  -1    -1   0   0     0  -1   0       1      0.0000  0.0000  0.0000
  39      -1   1   0    -1   0   0    -1   0   1       1      0.0000  0.0000  0.0000
  40       1  -1   0     1   0   0     1   0  -1       1      0.0000  0.0000  0.0000
  41       0   0   1     0   1   0     1   0   0       1      0.0000  0.0000  0.0000
  42       0   0  -1     0  -1   0    -1   0   0       1      0.0000  0.0000  0.0000
  43       1  -1   0     0  -1   0     0  -1   1       1      0.0000  0.0000  0.0000
  44      -1   1   0     0   1   0     0   1  -1       1      0.0000  0.0000  0.0000
  45       0   0  -1     1   0  -1     0   1  -1       1      0.0000  0.0000  0.0000
  46       0   0   1    -1   0   1     0  -1   1       1      0.0000  0.0000  0.0000
  47      -1   1   0    -1   0   1    -1   0   0       1      0.0000  0.0000  0.0000
  48       1  -1   0     1   0  -1     1   0   0       1      0.0000  0.0000  0.0000

 symlatt : the Bravais lattice is cF (face-centered cubic)

 symlatt : the Bravais lattice is cF (face-centered cubic)
 symspgr : spgroup= 225  Fm -3 m   (=Oh^5)
 symspgr : optical characteristics = isotropic
 ingeo : angdeg(1:3)=   60.00000000   60.00000000   60.00000000
 invars1 : treat image number: 1

 symlatt : the Bravais lattice is cF (face-centered cubic)
  xred   is defined in input file
 ingeo : takes atomic coordinates from input array xred
 symfind : exit, nsym=48
   symrel matrices, symafm and tnons are :
   1       1   0   0     0   1   0     0   0   1       1      0.0000  0.0000  0.0000
   2      -1   0   0     0  -1   0     0   0  -1       1      0.0000  0.0000  0.0000
   3       0  -1   1     0  -1   0     1  -1   0       1      0.0000  0.0000  0.0000
   4       0   1  -1     0   1   0    -1   1   0       1      0.0000  0.0000  0.0000
   5      -1   0   0    -1   0   1    -1   1   0       1      0.0000  0.0000  0.0000
   6       1   0   0     1   0  -1     1  -1   0       1      0.0000  0.0000  0.0000
   7       0   1  -1     1   0  -1     0   0  -1       1      0.0000  0.0000  0.0000
   8       0  -1   1    -1   0   1     0   0   1       1      0.0000  0.0000  0.0000
   9      -1   0   0    -1   1   0    -1   0   1       1      0.0000  0.0000  0.0000
  10       1   0   0     1  -1   0     1   0  -1       1      0.0000  0.0000  0.0000
  11       0  -1   1     1  -1   0     0  -1   0       1      0.0000  0.0000  0.0000
  12       0   1  -1    -1   1   0     0   1   0       1      0.0000  0.0000  0.0000
  13       1   0   0     0   0   1     0   1   0       1      0.0000  0.0000  0.0000
  14      -1   0   0     0   0  -1     0  -1   0       1      0.0000  0.0000  0.0000
  15       0   1  -1     0   0  -1     1   0  -1       1      0.0000  0.0000  0.0000
  16       0  -1   1     0   0   1    -1   0   1       1      0.0000  0.0000  0.0000
  17      -1   0   1    -1   1   0    -1   0   0       1      0.0000  0.0000  0.0000
  18       1   0  -1     1  -1   0     1   0   0       1      0.0000  0.0000  0.0000
  19       0  -1   0     1  -1   0     0  -1   1       1      0.0000  0.0000  0.0000
  20       0   1   0    -1   1   0     0   1  -1       1      0.0000  0.0000  0.0000
  21       1   0  -1     0   0  -1     0   1  -1       1      0.0000  0.0000  0.0000
  22      -1   0   1     0   0   1     0  -1   1       1      0.0000  0.0000  0.0000
  23       0   1   0     0   0   1     1   0   0       1      0.0000  0.0000  0.0000
  24       0  -1   0     0   0  -1    -1   0   0       1      0.0000  0.0000  0.0000
  25       1   0  -1     0   1  -1     0   0  -1       1      0.0000  0.0000  0.0000
  26      -1   0   1     0  -1   1     0   0   1       1      0.0000  0.0000  0.0000
  27       0  -1   0     0  -1   1     1  -1   0       1      0.0000  0.0000  0.0000
  28       0   1   0     0   1  -1    -1   1   0       1      0.0000  0.0000  0.0000
  29      -1   0   1    -1   0   0    -1   1   0       1      0.0000  0.0000  0.0000
  30       1   0  -1     1   0   0     1  -1   0       1      0.0000  0.0000  0.0000
  31       0   1   0     1   0   0     0   0   1       1      0.0000  0.0000  0.0000
  32       0  -1   0    -1   0   0     0   0  -1       1      0.0000  0.0000  0.0000
  33       0   0  -1     0   1  -1     1   0  -1       1      0.0000  0.0000  0.0000
  34       0   0   1     0  -1   1    -1   0   1       1      0.0000  0.0000  0.0000
  35       1  -1   0     0  -1   1     0  -1   0       1      0.0000  0.0000  0.0000
  36      -1   1   0     0   1  -1     0   1   0       1      0.0000  0.0000  0.0000
  37       0   0   1     1   0   0     0   1   0       1      0.0000  0.0000  0.0000
  38       0   0  -1    -1   0   0     0  -1   0       1      0.0000  0.0000  0.0000
  39      -1   1   0    -1   0   0    -1   0   1       1      0.0000  0.0000  0.0000
  40       1  -1   0     1   0   0     1   0  -1       1      0.0000  0.0000  0.0000
  41       0   0   1     0   1   0     1   0   0       1      0.0000  0.0000  0.0000
  42       0   0  -1     0  -1   0    -1   0   0       1      0.0000  0.0000  0.0000
  43       1  -1   0     0  -1   0     0  -1   1       1      0.0000  0.0000  0.0000
  44      -1   1   0     0   1   0     0   1  -1       1      0.0000  0.0000  0.0000
  45       0   0  -1     1   0  -1     0   1  -1       1      0.0000  0.0000  0.0000
  46       0   0   1    -1   0   1     0  -1   1       1      0.0000  0.0000  0.0000
  47      -1   1   0    -1   0   1    -1   0   0       1      0.0000  0.0000  0.0000
  48       1  -1   0     1   0  -1     1   0   0       1      0.0000  0.0000  0.0000

 symlatt : the Bravais lattice is cF (face-centered cubic)

 symlatt : the Bravais lattice is cF (face-centered cubic)
 symspgr : spgroup= 225  Fm -3 m   (=Oh^5)
 symspgr : optical characteristics = isotropic
 ingeo : angdeg(1:3)=   60.00000000   60.00000000   60.00000000
 invars2: take the default value of fband=  1.25000000E-01
 chkneu : initialized the occupation numbers for occopt=    1, spin-unpolarized or antiferromagnetic case :
  2.00  2.00  2.00  2.00  2.00  2.00  2.00  2.00  2.00  0.00
 invars2: take the default value of fband=  1.25000000E-01
 chkneu : initialized the occupation numbers for occopt=    1, spin-unpolarized or antiferromagnetic case :
  2.00  2.00  2.00  2.00  2.00  2.00  2.00  2.00  2.00  0.00
mpi_setup: mkmem  undefined in the input file.Use default mkmem  = nkpt
 mpi_setup: With nkpt_me=2 and mkmem  = 2, ground state wf handled in core.
mpi_setup: mkqmem undefined in the input file.Use default mkqmem = nkpt
 mpi_setup: With nkpt_me=2 and mkqmem = 2, ground state wf handled in core.
mpi_setup: mk1mem undefined in the input file.Use default mk1mem = nkpt
 mpi_setup: With nkpt_me=2 and mk1mem = 2, ground state wf handled in core.
 For input ecut=  8.820000E+00 best grid ngfft=      15      15      15
       max ecut=  9.043369E+00

 ==== FFT mesh ====
  FFT mesh divisions ........................    15   15   15
  Augmented FFT divisions ...................    15   15   15
  FFT algorithm .............................   112
  FFT cache size ............................    16
 getmpw: optimal value of mpw= 126
mpi_setup: mkmem  undefined in the input file.Use default mkmem  = nkpt
 mpi_setup: With nkpt_me=10 and mkmem  = 10, ground state wf handled in core.
mpi_setup: mkqmem undefined in the input file.Use default mkqmem = nkpt
 mpi_setup: With nkpt_me=10 and mkqmem = 10, ground state wf handled in core.
mpi_setup: mk1mem undefined in the input file.Use default mk1mem = nkpt
 mpi_setup: With nkpt_me=10 and mk1mem = 10, ground state wf handled in core.
 For input ecut=  8.820000E+00 best grid ngfft=      15      15      15
       max ecut=  9.043369E+00

 ==== FFT mesh ====
  FFT mesh divisions ........................    15   15   15
  Augmented FFT divisions ...................    15   15   15
  FFT algorithm .............................   112
  FFT cache size ............................    16
 getmpw: optimal value of mpw= 131

 DATASET    1 : space group Fm -3 m (#225); Bravais cF (face-center cubic)

 getdim_nloc : deduce lmnmax  =  18, lnmax  =   6,
                      lmnmaxso=  18, lnmaxso=   6.
memory : analysis of memory needs
================================================================================
 Values of the parameters that define the memory need for DATASET  1.
     intxc =       0    ionmov =       2      iscf =       7    lmnmax =       6
     lnmax =       6     mgfft =      15  mpssoang =       3    mqgrid =    3001
     natom =       1  nloc_mem =       1    nspden =       1   nspinor =       1
    nsppol =       1      nsym =      48    n1xccc =    2501    ntypat =       1
    occopt =       1   xclevel =       2
-    mband =          10        mffmem =           1         mkmem =           2
       mpw =         126          nfft =        3375          nkpt =           2
================================================================================
P This job should need less than                       1.838 Mbytes of memory.
  Rough estimation (10% accuracy) of disk space for files :
_ WF disk file :      0.040 Mbytes ; DEN or POT disk file :      0.028 Mbytes.
================================================================================

 Biggest array : f_fftgr(disk), with      0.4140 MBytes.
 memana : allocated an array of      0.414 Mbytes, for testing purposes.
 memana: allocated       1.838Mbytes, for testing purposes. 
 The job will continue.

 DATASET    2 : space group Fm -3 m (#225); Bravais cF (face-center cubic)

 getdim_nloc : deduce lmnmax  =  18, lnmax  =   6,
                      lmnmaxso=  18, lnmaxso=   6.
memory : analysis of memory needs
================================================================================
 Values of the parameters that define the memory need for DATASET  2.
     intxc =       0    ionmov =       2      iscf =       7    lmnmax =       6
     lnmax =       6     mgfft =      15  mpssoang =       3    mqgrid =    3001
     natom =       1  nloc_mem =       1    nspden =       1   nspinor =       1
    nsppol =       1      nsym =      48    n1xccc =    2501    ntypat =       1
    occopt =       1   xclevel =       2
-    mband =          10        mffmem =           1         mkmem =          10
       mpw =         131          nfft =        3375          nkpt =          10
================================================================================
P This job should need less than                       2.013 Mbytes of memory.
  Rough estimation (10% accuracy) of disk space for files :
_ WF disk file :      0.202 Mbytes ; DEN or POT disk file :      0.028 Mbytes.
================================================================================

 Biggest array : f_fftgr(disk), with      0.4140 MBytes.
 memana : allocated an array of      0.414 Mbytes, for testing purposes.
 memana: allocated       2.013Mbytes, for testing purposes. 
 The job will continue.
--------------------------------------------------------------------------------
------------- Echo of variables that govern the present computation ------------
--------------------------------------------------------------------------------
-
- outvars: echo of selected default values                                      
-   iomode0 =  0 , fftalg0 =112 , wfoptalg0 =  0
-
- outvars: echo of global parameters not present in the input file              
-  max_nthreads =    0
-
 -outvars: echo values of preprocessed input variables --------
            acell      7.3500000000E+00  7.3500000000E+00  7.3500000000E+00 Bohr
              amu      1.06420000E+02
           diemac      1.20000000E+01
          dilatmx      1.05000000E+00
             ecut      8.00000000E+00 Hartree
           ecutsm      5.00000000E-01 Hartree
-          fftalg         112
           getwfk          -1
           ionmov           2
              ixc          11
           jdtset        1    2
              kpt1    -2.50000000E-01  5.00000000E-01  0.00000000E+00
                      -2.50000000E-01  0.00000000E+00  0.00000000E+00
              kpt2    -1.25000000E-01 -2.50000000E-01  0.00000000E+00
                      -1.25000000E-01  5.00000000E-01  0.00000000E+00
                      -2.50000000E-01 -3.75000000E-01  0.00000000E+00
                      -1.25000000E-01 -3.75000000E-01  1.25000000E-01
                      -1.25000000E-01  2.50000000E-01  0.00000000E+00
                      -2.50000000E-01  3.75000000E-01  0.00000000E+00
                      -3.75000000E-01  5.00000000E-01  0.00000000E+00
                      -2.50000000E-01  5.00000000E-01  1.25000000E-01
                      -1.25000000E-01  0.00000000E+00  0.00000000E+00
                      -3.75000000E-01  0.00000000E+00  0.00000000E+00
         kptrlatt1       2   -2    2     -2    2    2     -2   -2    2
         kptrlatt2       4   -4    4     -4    4    4     -4   -4    4
          kptrlen1     1.47000000E+01
          kptrlen2     2.94000000E+01
P           mkmem1          2
P           mkmem2         10
            natom           1
            nband1         10
            nband2         10
           ndtset           2
            ngfft          15      15      15
             nkpt1          2
             nkpt2         10
            nstep          10
             nsym          48
            ntime          10
           ntypat           1
              occ1     2.000000  2.000000  2.000000  2.000000  2.000000  2.000000
                       2.000000  2.000000  2.000000  0.000000
              occ2     2.000000  2.000000  2.000000  2.000000  2.000000  2.000000
                       2.000000  2.000000  2.000000  0.000000
          optcell           1
            rprim      0.0000000000E+00  5.0000000000E-01  5.0000000000E-01
                       5.0000000000E-01  0.0000000000E+00  5.0000000000E-01
                       5.0000000000E-01  5.0000000000E-01  0.0000000000E+00
           shiftk      5.00000000E-01  5.00000000E-01  5.00000000E-01
          spgroup         225
           symrel      1  0  0   0  1  0   0  0  1      -1  0  0   0 -1  0   0  0 -1
                       0 -1  1   0 -1  0   1 -1  0       0  1 -1   0  1  0  -1  1  0
                      -1  0  0  -1  0  1  -1  1  0       1  0  0   1  0 -1   1 -1  0
                       0  1 -1   1  0 -1   0  0 -1       0 -1  1  -1  0  1   0  0  1
                      -1  0  0  -1  1  0  -1  0  1       1  0  0   1 -1  0   1  0 -1
                       0 -1  1   1 -1  0   0 -1  0       0  1 -1  -1  1  0   0  1  0
                       1  0  0   0  0  1   0  1  0      -1  0  0   0  0 -1   0 -1  0
                       0  1 -1   0  0 -1   1  0 -1       0 -1  1   0  0  1  -1  0  1
                      -1  0  1  -1  1  0  -1  0  0       1  0 -1   1 -1  0   1  0  0
                       0 -1  0   1 -1  0   0 -1  1       0  1  0  -1  1  0   0  1 -1
                       1  0 -1   0  0 -1   0  1 -1      -1  0  1   0  0  1   0 -1  1
                       0  1  0   0  0  1   1  0  0       0 -1  0   0  0 -1  -1  0  0
                       1  0 -1   0  1 -1   0  0 -1      -1  0  1   0 -1  1   0  0  1
                       0 -1  0   0 -1  1   1 -1  0       0  1  0   0  1 -1  -1  1  0
                      -1  0  1  -1  0  0  -1  1  0       1  0 -1   1  0  0   1 -1  0
                       0  1  0   1  0  0   0  0  1       0 -1  0  -1  0  0   0  0 -1
                       0  0 -1   0  1 -1   1  0 -1       0  0  1   0 -1  1  -1  0  1
                       1 -1  0   0 -1  1   0 -1  0      -1  1  0   0  1 -1   0  1  0
                       0  0  1   1  0  0   0  1  0       0  0 -1  -1  0  0   0 -1  0
                      -1  1  0  -1  0  0  -1  0  1       1 -1  0   1  0  0   1  0 -1
                       0  0  1   0  1  0   1  0  0       0  0 -1   0 -1  0  -1  0  0
                       1 -1  0   0 -1  0   0 -1  1      -1  1  0   0  1  0   0  1 -1
                       0  0 -1   1  0 -1   0  1 -1       0  0  1  -1  0  1   0 -1  1
                      -1  1  0  -1  0  1  -1  0  0       1 -1  0   1  0 -1   1  0  0
           toldfe      1.00000000E-06 Hartree
            typat      1
              wtk1       0.75000    0.25000
              wtk2       0.09375    0.09375    0.09375    0.18750    0.09375    0.09375
                         0.09375    0.18750    0.03125    0.03125
            znucl       46.00000

================================================================================

 chkinp: Checking input parameters for consistency, jdtset=   1.

 chkinp: Checking input parameters for consistency, jdtset=   2.
 DATA TYPE INFORMATION: 
 REAL:      Data type name: REAL(DP) 
            Kind value:      8
            Precision:      15
            Smallest nonnegligible quantity relative to 1:  0.22204460E-15
            Smallest positive number:                       0.22250739-307
            Largest representable number:                   0.17976931+309
 INTEGER:   Data type name: INTEGER(default) 
            Kind value: 4
            Bit size:   32
            Largest representable number: 2147483647
 LOGICAL:   Data type name: LOGICAL 
            Kind value: 4
 CHARACTER: Data type name: CHARACTER             Kind value: 1

  ==== OpenMP parallelism is OFF ====
 
  MPI-IO support is OFF

================================================================================
== DATASET  1 ==================================================================
-   nproc =    1


 getdim_nloc : deduce lmnmax  =  18, lnmax  =   6,
                      lmnmaxso=  18, lnmaxso=   6.
 Exchange-correlation functional for the present dataset will be:
  GGA: Perdew-Burke-Ernzerhof functional - ixc=11
 Citation for XC functional:
  J.P.Perdew, K.Burke, M.Ernzerhof, PRL 77, 3865 (1996)

 Unit cell volume ucvol=  9.9266344E+01 bohr^3
 Angles (23,13,12)=  6.00000000E+01  6.00000000E+01  6.00000000E+01 degrees

 getcut: wavevector=  0.0000  0.0000  0.0000  ngfft=  15  15  15
         ecut(hartree)=      8.820   => boxcut(ratio)=   2.02517
- pspini: atom type   1  psp file is ../../../Psps_for_tests/Pd.psp8
- pspatm: opening atomic psp file    ../../../Psps_for_tests/Pd.psp8
- Pd    ONCVPSP-3.2.3.1  r_core=   1.41052   1.46191   1.55175
- 46.00000  18.00000    170510                znucl, zion, pspdat
    8   11    2    4       600   0.00000      pspcod,pspxc,lmax,lloc,mmax,r2well
    5.99000000000000    7.00000000000000    0.00000000000000   rchrg,fchrg,qchrg
     nproj     2     2     2
     extension_switch     1
 valence charge integrates to:    17.981740865694604     
  pspatm : epsatm=   26.09224486
         --- l  ekb(1:nproj) -->
             0    7.845850   -2.282160
             1    3.261104   -0.686948
             2   -1.134855   -0.401224
 pspatm: atomic psp has been read  and splines computed

   4.69660407E+02                                ecore*ucvol(ha*bohr**3)
 ==== Info on pseudopotentials ====
  Norm-conserving pseudopotentials
  Number of pseudopotentials ..    1
  Number of types of atoms   ..    1
  Scalar calculation (no spin-orbit term)
  Nonlocal part applied using Legendre polynomials
  Max number of non-local projectors over l and type   2
  Highest angular momentum +1 .......   3
  Max number of (l,n)   components ..   6
  Max number of (l,m,n) components ..   6

 Pseudo-Core Charge Info: 
   Number of radial points for pseudo-core charge .. 2501
   XC core-correction treatment (optnlxccc) ........    1
   Radius for pseudo-core charge for each type ..... 

  - Atom type    1 has pseudo-core radius ..  5.9900

 Info on the Q-grid used for form factors in spline form: 
   Number of q-points for radial functions ffspl ..   3001
   Number of q-points for vlspl ...................   3001
   vloc is computed in Reciprocal Space
   model core charge treated in real-space

  XC functional for type 1 is 11
  Pseudo valence available: yes

 wfconv:    10 bands initialized randomly with npw=   121, for ikpt=     1
 wfconv:    10 bands initialized randomly with npw=   126, for ikpt=     2
_setup2: Arith. and geom. avg. npw (full set) are     122.250     122.231
 initro: for itypat=  1, take pseudo charge density from pp file

================================================================================

=== [ionmov= 2] Broyden-Fletcher-Goldfard-Shanno method (forces)            
================================================================================

--- Iteration: ( 1/10) Internal Cycle: (1/1)
--------------------------------------------------------------------------------

 Cartesian coordinates (xcart) [bohr]
  0.00000000000000E+00  0.00000000000000E+00  0.00000000000000E+00
 Reduced coordinates (xred)
  0.00000000000000E+00  0.00000000000000E+00  0.00000000000000E+00
 Scale of Primitive Cell (acell) [bohr]
  7.35000000000000E+00  7.35000000000000E+00  7.35000000000000E+00
 Real space primitive translations (rprimd) [bohr]
  0.00000000000000E+00  3.67500000000000E+00  3.67500000000000E+00
  3.67500000000000E+00  0.00000000000000E+00  3.67500000000000E+00
  3.67500000000000E+00  3.67500000000000E+00  0.00000000000000E+00
 Unitary Cell Volume (ucvol) [Bohr^3]=  9.92663437500000E+01
 Angles (23,13,12)= [degrees]
  6.00000000000000E+01  6.00000000000000E+01  6.00000000000000E+01
 Lengths [Bohr]
  5.19723484172112E+00  5.19723484172112E+00  5.19723484172112E+00

---SELF-CONSISTENT-FIELD CONVERGENCE--------------------------------------------

 getcut: wavevector=  0.0000  0.0000  0.0000  ngfft=  15  15  15
         ecut(hartree)=      8.000   => boxcut(ratio)=   2.12643

 ITER STEP NUMBER     1
 vtorho : nnsclo_now=2, note that nnsclo,dbl_nnsclo,istep=0 0 1
 non-scf iterations; kpt #     1  , k= ( -0.25000  0.50000  0.00000  ), band residuals:
 res:  1.02E+00  8.76E-01  1.19E+00  1.22E+00  6.56E-01  6.28E-01  4.35E-01  9.82E-01
 res:  2.60E-01  5.04E-01
 ene: -2.26E+00 -1.00E+00 -9.75E-01 -9.44E-01  5.31E-01  5.73E-01  6.54E-01  8.66E-01
 ene:  1.02E+00  1.17E+00
 res:  4.21E-03  4.65E-03  6.30E-03  8.32E-03  5.82E-03  2.74E-03  5.17E-03  7.89E-03
 res:  1.00E-02  1.16E-02
 ene: -2.33E+00 -1.12E+00 -1.09E+00 -1.08E+00  4.56E-01  5.26E-01  6.06E-01  7.50E-01
 ene:  8.99E-01  1.00E+00
 vtowfk : number of one-way 3D ffts skipped in vtowfk until now =1
     eigenvalues (hartree) for   10  bands
              after    3 non-SCF iterations with    4 CG line minimizations
 -2.3253E+00 -1.1179E+00 -1.0933E+00 -1.0848E+00  4.5611E-01  5.2591E-01
  6.0639E-01  7.4997E-01  8.9930E-01  1.0036E+00
 non-scf iterations; kpt #     2  , k= ( -0.25000  0.00000  0.00000  ), band residuals:
 res:  1.30E+00  9.95E-01  8.52E-01  1.07E+00  5.81E-01  6.25E-01  8.42E-01  3.79E-01
 res:  8.13E-01  9.25E-01
 ene: -2.24E+00 -1.00E+00 -9.61E-01 -9.28E-01  3.88E-01  6.71E-01  7.01E-01  8.44E-01
 ene:  9.17E-01  1.39E+00
 res:  4.19E-03  3.20E-03  6.55E-03  1.05E-02  4.91E-03  6.75E-03  1.23E-03  9.71E-03
 res:  1.57E-02  9.25E-02
 ene: -2.33E+00 -1.08E+00 -1.08E+00 -1.07E+00  3.28E-01  6.10E-01  6.80E-01  7.09E-01
 ene:  8.23E-01  8.38E-01
 vtowfk : number of one-way 3D ffts skipped in vtowfk until now =2
     eigenvalues (hartree) for   10  bands
              after    3 non-SCF iterations with    4 CG line minimizations
 -2.3288E+00 -1.0825E+00 -1.0806E+00 -1.0743E+00  3.2798E-01  6.1020E-01
  6.8027E-01  7.0885E-01  8.2257E-01  8.3844E-01
 Total charge density [el/Bohr^3]
      Maximum=    1.0085E+00  at reduced coord.    0.0000    0.1333    0.8667
      Minimum=    4.7926E-02  at reduced coord.    0.5333    0.4667    0.4667
   Integrated=    1.8000E+01
 ETOT  1  -128.68008026099    -1.287E+02 9.247E-02 9.026E+02
 scprqt: <Vxc>= -5.7280106E-01 hartree

Simple mixing update:
  residual square of the potential :   530.40619162104633
 scfcv: previous iteration took 00 [s]

 ITER STEP NUMBER     2
 vtorho : nnsclo_now=2, note that nnsclo,dbl_nnsclo,istep=0 0 2
 non-scf iterations; kpt #     1  , k= ( -0.25000  0.50000  0.00000  ), band residuals:
 res:  9.19E-02  9.54E-02  2.38E-02  8.63E-03  6.75E-02  4.30E-02  4.16E-02  5.72E-03
 res:  1.19E-01  7.30E-02
 ene: -3.56E+00 -2.09E+00 -2.07E+00 -2.07E+00  2.53E-01  3.14E-01  3.52E-01  3.84E-01
 ene:  4.59E-01  6.15E-01
 res:  1.55E-04  3.34E-04  3.95E-05  2.86E-05  1.65E-04  7.01E-04  8.11E-05  6.78E-06
 res:  1.69E-03  1.03E-03
 ene: -3.56E+00 -2.10E+00 -2.08E+00 -2.07E+00  2.46E-01  2.87E-01  3.49E-01  3.83E-01
 ene:  4.30E-01  6.03E-01
 vtowfk : number of one-way 3D ffts skipped in vtowfk until now =3
     eigenvalues (hartree) for   10  bands
              after    3 non-SCF iterations with    4 CG line minimizations
 -3.5648E+00 -2.1009E+00 -2.0756E+00 -2.0670E+00  2.4569E-01  2.8743E-01
  3.4924E-01  3.8347E-01  4.3006E-01  6.0297E-01
 non-scf iterations; kpt #     2  , k= ( -0.25000  0.00000  0.00000  ), band residuals:
 res:  7.70E-02  3.19E-03  4.83E-03  3.59E-02  9.47E-02  1.42E-02  1.70E-03  1.20E-03
 res:  1.36E-03  2.41E-03
 ene: -3.57E+00 -2.07E+00 -2.07E+00 -2.04E+00  2.44E-01  3.16E-01  3.17E-01  3.60E-01
 ene:  4.16E-01  4.17E-01
 res:  1.50E-05  4.02E-06  3.55E-06  1.10E-05  4.37E-06  3.07E-08  2.78E-08  2.22E-07
 res:  1.98E-07  2.60E-07
 ene: -3.57E+00 -2.07E+00 -2.07E+00 -2.04E+00  2.44E-01  3.16E-01  3.17E-01  3.60E-01
 ene:  4.16E-01  4.17E-01
 vtowfk : number of one-way 3D ffts skipped in vtowfk until now =4
     eigenvalues (hartree) for   10  bands
              after    3 non-SCF iterations with    4 CG line minimizations
 -3.5669E+00 -2.0693E+00 -2.0693E+00 -2.0399E+00  2.4390E-01  3.1637E-01
  3.1713E-01  3.5964E-01  4.1638E-01  4.1666E-01
 Total charge density [el/Bohr^3]
      Maximum=    1.2181E+00  at reduced coord.    0.1333    0.8667    0.9333
      Minimum=    1.0841E-02  at reduced coord.    0.5333    0.4667    0.4667
   Integrated=    1.8000E+01
 ETOT  2  -129.92746613531    -1.247E+00 1.689E-03 1.709E+02
 scprqt: <Vxc>= -4.9756616E-01 hartree

 Pulay update with  1 previous iterations:
 mixing of old trial potential : alpha(m:m-4)=  0.700      0.300
 scfcv: previous iteration took 00 [s]

 ITER STEP NUMBER     3
 vtorho : nnsclo_now=1, note that nnsclo,dbl_nnsclo,istep=0 0 3
 non-scf iterations; kpt #     1  , k= ( -0.25000  0.50000  0.00000  ), band residuals:
 res:  2.20E-03  1.73E-03  3.48E-04  1.18E-04  1.50E-03  1.27E-03  3.85E-03  5.42E-05
 res:  2.89E-05  8.67E-03
 ene: -3.17E+00 -1.75E+00 -1.73E+00 -1.72E+00  3.98E-01  4.45E-01  5.13E-01  5.74E-01
 ene:  6.48E-01  7.37E-01
 vtowfk : number of one-way 3D ffts skipped in vtowfk until now =5
     eigenvalues (hartree) for   10  bands
              after    2 non-SCF iterations with    4 CG line minimizations
 -3.1657E+00 -1.7530E+00 -1.7286E+00 -1.7204E+00  3.9777E-01  4.4454E-01
  5.1292E-01  5.7386E-01  6.4780E-01  7.3685E-01
 non-scf iterations; kpt #     2  , k= ( -0.25000  0.00000  0.00000  ), band residuals:
 res:  3.10E-03  5.14E-05  5.16E-05  7.70E-04  5.12E-03  6.39E-05  6.49E-05  4.89E-03
 res:  1.23E-04  1.24E-04
 ene: -3.17E+00 -1.72E+00 -1.72E+00 -1.70E+00  3.35E-01  5.01E-01  5.05E-01  5.05E-01
 ene:  6.12E-01  6.13E-01
 vtowfk : number of one-way 3D ffts skipped in vtowfk until now =6
     eigenvalues (hartree) for   10  bands
              after    2 non-SCF iterations with    4 CG line minimizations
 -3.1679E+00 -1.7220E+00 -1.7217E+00 -1.6972E+00  3.3498E-01  5.0072E-01
  5.0494E-01  5.0521E-01  6.1218E-01  6.1285E-01
 Total charge density [el/Bohr^3]
      Maximum=    1.1612E+00  at reduced coord.    0.1333    0.8667    0.9333
      Minimum=    1.9418E-02  at reduced coord.    0.5333    0.4667    0.4667
   Integrated=    1.8000E+01
 ETOT  3  -130.18256770872    -2.551E-01 8.669E-03 1.203E+00
 scprqt: <Vxc>= -5.2485275E-01 hartree

 Pulay update with  2 previous iterations:
 mixing of old trial potential : alpha(m:m-4)=  0.834      0.104      0.614E-01
 scfcv: previous iteration took 00 [s]

 ITER STEP NUMBER     4
 vtorho : nnsclo_now=1, note that nnsclo,dbl_nnsclo,istep=0 0 4
 non-scf iterations; kpt #     1  , k= ( -0.25000  0.50000  0.00000  ), band residuals:
 res:  8.84E-07  1.42E-06  4.75E-07  5.44E-08  5.33E-06  4.30E-06  7.16E-06  1.67E-07
 res:  2.66E-07  2.23E-05
 ene: -3.18E+00 -1.77E+00 -1.75E+00 -1.74E+00  3.73E-01  4.20E-01  4.89E-01  5.52E-01
 ene:  6.27E-01  7.13E-01
 vtowfk : number of one-way 3D ffts skipped in vtowfk until now =7
     eigenvalues (hartree) for   10  bands
              after    2 non-SCF iterations with    4 CG line minimizations
 -3.1839E+00 -1.7722E+00 -1.7478E+00 -1.7396E+00  3.7349E-01  4.2008E-01
  4.8928E-01  5.5175E-01  6.2690E-01  7.1295E-01
 non-scf iterations; kpt #     2  , k= ( -0.25000  0.00000  0.00000  ), band residuals:
 res:  1.23E-06  1.02E-07  9.96E-08  8.66E-07  5.02E-06  4.08E-06  2.67E-07  2.17E-07
 res:  6.44E-08  6.07E-08
 ene: -3.19E+00 -1.74E+00 -1.74E+00 -1.72E+00  3.08E-01  4.77E-01  4.83E-01  4.83E-01
 ene:  5.91E-01  5.91E-01
 vtowfk : number of one-way 3D ffts skipped in vtowfk until now =8
     eigenvalues (hartree) for   10  bands
              after    2 non-SCF iterations with    4 CG line minimizations
 -3.1862E+00 -1.7412E+00 -1.7410E+00 -1.7165E+00  3.0795E-01  4.7709E-01
  4.8283E-01  4.8326E-01  5.9056E-01  5.9122E-01
 Total charge density [el/Bohr^3]
      Maximum=    1.1597E+00  at reduced coord.    0.1333    0.8667    0.9333
      Minimum=    1.9959E-02  at reduced coord.    0.5333    0.4667    0.4667
   Integrated=    1.8000E+01
 ETOT  4  -130.18359790405    -1.030E-03 2.231E-05 5.946E-02
 scprqt: <Vxc>= -5.2593301E-01 hartree

 Pulay update with  3 previous iterations:
 mixing of old trial potential : alpha(m:m-4)=   1.26     -0.257     -0.146E-02 -0.138E-03
 scfcv: previous iteration took 00 [s]

 ITER STEP NUMBER     5
 vtorho : nnsclo_now=1, note that nnsclo,dbl_nnsclo,istep=0 0 5
 non-scf iterations; kpt #     1  , k= ( -0.25000  0.50000  0.00000  ), band residuals:
 res:  5.36E-08  7.21E-08  1.80E-08  5.01E-09  4.88E-07  4.72E-07  4.70E-07  2.06E-08
 res:  1.70E-08  1.25E-06
 ene: -3.18E+00 -1.77E+00 -1.75E+00 -1.74E+00  3.73E-01  4.20E-01  4.89E-01  5.52E-01
 ene:  6.28E-01  7.13E-01
 vtowfk : number of one-way 3D ffts skipped in vtowfk until now =9
     eigenvalues (hartree) for   10  bands
              after    2 non-SCF iterations with    4 CG line minimizations
 -3.1824E+00 -1.7712E+00 -1.7468E+00 -1.7386E+00  3.7337E-01  4.1977E-01
  4.8937E-01  5.5219E-01  6.2768E-01  7.1290E-01
 non-scf iterations; kpt #     2  , k= ( -0.25000  0.00000  0.00000  ), band residuals:
 res:  8.80E-08  2.68E-09  2.29E-09  4.01E-08  4.82E-07  3.92E-07  3.69E-08  2.00E-08
 res:  5.81E-09  1.29E-08
 ene: -3.18E+00 -1.74E+00 -1.74E+00 -1.72E+00  3.07E-01  4.77E-01  4.83E-01  4.84E-01
 ene:  5.91E-01  5.92E-01
 vtowfk : number of one-way 3D ffts skipped in vtowfk until now =10
     eigenvalues (hartree) for   10  bands
              after    2 non-SCF iterations with    4 CG line minimizations
 -3.1847E+00 -1.7401E+00 -1.7399E+00 -1.7154E+00  3.0703E-01  4.7710E-01
  4.8327E-01  4.8380E-01  5.9111E-01  5.9183E-01
 Total charge density [el/Bohr^3]
      Maximum=    1.1593E+00  at reduced coord.    0.0000    0.1333    0.8667
      Minimum=    2.0269E-02  at reduced coord.    0.5333    0.4667    0.4667
   Integrated=    1.8000E+01
 ETOT  5  -130.18363736546    -3.946E-05 1.251E-06 1.411E-04
 scprqt: <Vxc>= -5.2625544E-01 hartree

 Pulay update with  4 previous iterations:
 mixing of old trial potential : alpha(m:m-4)=   1.14     -0.174      0.320E-01 -0.758E-03 -0.294E-03
 scfcv: previous iteration took 00 [s]

 ITER STEP NUMBER     6
 vtorho : nnsclo_now=1, note that nnsclo,dbl_nnsclo,istep=0 0 6
 non-scf iterations; kpt #     1  , k= ( -0.25000  0.50000  0.00000  ), band residuals:
 res:  1.94E-10  1.25E-10  7.46E-11  1.23E-10  1.31E-09  1.69E-09  4.82E-10  5.57E-10
 res:  5.38E-10  2.29E-09
 ene: -3.18E+00 -1.77E+00 -1.75E+00 -1.74E+00  3.73E-01  4.19E-01  4.89E-01  5.52E-01
 ene:  6.27E-01  7.13E-01
 vtowfk : number of one-way 3D ffts skipped in vtowfk until now =11
     eigenvalues (hartree) for   10  bands
              after    2 non-SCF iterations with    4 CG line minimizations
 -3.1827E+00 -1.7714E+00 -1.7470E+00 -1.7388E+00  3.7310E-01  4.1946E-01
  4.8910E-01  5.5192E-01  6.2742E-01  7.1262E-01
 non-scf iterations; kpt #     2  , k= ( -0.25000  0.00000  0.00000  ), band residuals:
 res:  2.11E-10  1.32E-11  5.45E-11  9.06E-11  1.62E-09  1.20E-09  8.80E-10  2.42E-11
 res:  2.24E-11  5.29E-10
 ene: -3.18E+00 -1.74E+00 -1.74E+00 -1.72E+00  3.07E-01  4.77E-01  4.83E-01  4.84E-01
 ene:  5.91E-01  5.92E-01
 vtowfk : number of one-way 3D ffts skipped in vtowfk until now =12
     eigenvalues (hartree) for   10  bands
              after    2 non-SCF iterations with    4 CG line minimizations
 -3.1849E+00 -1.7404E+00 -1.7402E+00 -1.7157E+00  3.0673E-01  4.7682E-01
  4.8301E-01  4.8355E-01  5.9083E-01  5.9157E-01
 Total charge density [el/Bohr^3]
      Maximum=    1.1593E+00  at reduced coord.    0.0000    0.1333    0.8667
      Minimum=    2.0292E-02  at reduced coord.    0.5333    0.4667    0.4667
   Integrated=    1.8000E+01
 ETOT  6  -130.18363716253     2.029E-07 2.289E-09 1.373E-06
 scprqt: <Vxc>= -5.2626636E-01 hartree

 Pulay update with  5 previous iterations:
 mixing of old trial potential : alpha(m:m-4)=   1.01     -0.374E-02 -0.664E-02  0.252E-02 -0.495E-04
 scfcv: previous iteration took 00 [s]

 ITER STEP NUMBER     7
 vtorho : nnsclo_now=1, note that nnsclo,dbl_nnsclo,istep=0 0 7
 non-scf iterations; kpt #     1  , k= ( -0.25000  0.50000  0.00000  ), band residuals:
 res:  5.04E-12  2.04E-12  1.95E-12  3.25E-12  3.09E-12  3.66E-12  7.54E-12  6.51E-12
 res:  1.17E-11  7.90E-11
 ene: -3.18E+00 -1.77E+00 -1.75E+00 -1.74E+00  3.73E-01  4.19E-01  4.89E-01  5.52E-01
 ene:  6.27E-01  7.13E-01
 vtowfk : number of one-way 3D ffts skipped in vtowfk until now =13
     eigenvalues (hartree) for   10  bands
              after    2 non-SCF iterations with    4 CG line minimizations
 -3.1827E+00 -1.7715E+00 -1.7470E+00 -1.7388E+00  3.7309E-01  4.1945E-01
  4.8909E-01  5.5191E-01  6.2741E-01  7.1261E-01
 non-scf iterations; kpt #     2  , k= ( -0.25000  0.00000  0.00000  ), band residuals:
 res:  5.28E-12  1.47E-13  1.59E-12  1.71E-12  7.22E-12  3.46E-12  9.97E-12  1.60E-12
 res:  1.63E-12  5.15E-12
 ene: -3.18E+00 -1.74E+00 -1.74E+00 -1.72E+00  3.07E-01  4.77E-01  4.83E-01  4.84E-01
 ene:  5.91E-01  5.92E-01
 vtowfk : number of one-way 3D ffts skipped in vtowfk until now =14
     eigenvalues (hartree) for   10  bands
              after    2 non-SCF iterations with    4 CG line minimizations
 -3.1849E+00 -1.7404E+00 -1.7402E+00 -1.7157E+00  3.0672E-01  4.7680E-01
  4.8299E-01  4.8354E-01  5.9081E-01  5.9156E-01
 Total charge density [el/Bohr^3]
      Maximum=    1.1593E+00  at reduced coord.    0.0000    0.1333    0.8667
      Minimum=    2.0292E-02  at reduced coord.    0.5333    0.4667    0.4667
   Integrated=    1.8000E+01
 ETOT  7  -130.18363709764     6.489E-08 7.896E-11 1.297E-08
 scprqt: <Vxc>= -5.2626582E-01 hartree

 At SCF step    7, etot is converged : 
  for the second time, diff in etot=  6.489E-08 < toldfe=  1.000E-06

 Cartesian components of stress tensor (hartree/bohr^3)
  sigma(1 1)= -1.35131165E-02  sigma(3 2)=  0.00000000E+00
  sigma(2 2)= -1.35131165E-02  sigma(3 1)=  0.00000000E+00
  sigma(3 3)= -1.35131165E-02  sigma(2 1)=  0.00000000E+00

 fftdatar_write: About to write data to: PdGeomOpt_o_DS1_TIM1_DEN with iomode IO_MODE_FORTRAN
 IO operation completed. cpu_time:       0.0 [s], walltime:       0.0 [s]

---OUTPUT-----------------------------------------------------------------------

 Cartesian coordinates (xcart) [bohr]
  0.00000000000000E+00  0.00000000000000E+00  0.00000000000000E+00
 Reduced coordinates (xred)
  0.00000000000000E+00  0.00000000000000E+00  0.00000000000000E+00
 Cartesian forces (fcart) [Ha/bohr]; max,rms= 0.00000E+00 0.00000E+00 (free atoms)
 -0.00000000000000E+00 -0.00000000000000E+00 -0.00000000000000E+00
 Reduced forces (fred)
  0.00000000000000E+00  0.00000000000000E+00  0.00000000000000E+00
 Scale of Primitive Cell (acell) [bohr]
  7.35000000000000E+00  7.35000000000000E+00  7.35000000000000E+00
 Real space primitive translations (rprimd) [bohr]
  0.00000000000000E+00  3.67500000000000E+00  3.67500000000000E+00
  3.67500000000000E+00  0.00000000000000E+00  3.67500000000000E+00
  3.67500000000000E+00  3.67500000000000E+00  0.00000000000000E+00
 Unitary Cell Volume (ucvol) [Bohr^3]=  9.92663437500000E+01
 Angles (23,13,12)= [degrees]
  6.00000000000000E+01  6.00000000000000E+01  6.00000000000000E+01
 Lengths [Bohr]
  5.19723484172112E+00  5.19723484172112E+00  5.19723484172112E+00
 Stress tensor in cartesian coordinates (strten) [Ha/bohr^3]
 -1.35131165128195E-02  0.00000000000000E+00  0.00000000000000E+00
  0.00000000000000E+00 -1.35131165128195E-02  0.00000000000000E+00
  0.00000000000000E+00  0.00000000000000E+00 -1.35131165128195E-02
 Total energy (etotal) [Ha]= -1.30183637097641E+02
 fconv : at Broyd/MD step   1, gradients have not converged yet. 
  max grad (force/stress) = 1.3513E+00 > tolmxf= 5.0000E-05 ha/bohr (free atoms)

 Geometry Optimization Precondition:           0
Inverse hessian has been initialized.
 EXIT:           1           1
 mover: previous time step took 00 [s]

--- Iteration: ( 2/10) Internal Cycle: (1/1)
--------------------------------------------------------------------------------

 Cartesian coordinates (xcart) [bohr]
  0.00000000000000E+00  0.00000000000000E+00  0.00000000000000E+00
 Reduced coordinates (xred)
  0.00000000000000E+00  0.00000000000000E+00  0.00000000000000E+00
 Scale of Primitive Cell (acell) [bohr]
  7.64796421910767E+00  7.64796421910767E+00  7.64796421910767E+00
 Real space primitive translations (rprimd) [bohr]
  0.00000000000000E+00  3.82398210955383E+00  3.82398210955383E+00
  3.82398210955383E+00  0.00000000000000E+00  3.82398210955383E+00
  3.82398210955383E+00  3.82398210955383E+00  0.00000000000000E+00
 Unitary Cell Volume (ucvol) [Bohr^3]=  1.11834950785954E+02
 Angles (23,13,12)= [degrees]
  6.00000000000000E+01  6.00000000000000E+01  6.00000000000000E+01
 Lengths [Bohr]
  5.40792736160311E+00  5.40792736160311E+00  5.40792736160311E+00

---SELF-CONSISTENT-FIELD CONVERGENCE--------------------------------------------

 getcut: wavevector=  0.0000  0.0000  0.0000  ngfft=  15  15  15
         ecut(hartree)=      8.000   => boxcut(ratio)=   2.04358

 ITER STEP NUMBER     1
 vtorho : nnsclo_now=2, note that nnsclo,dbl_nnsclo,istep=0 0 1
 non-scf iterations; kpt #     1  , k= ( -0.25000  0.50000  0.00000  ), band residuals:
 res:  5.10E-03  2.65E-03  5.06E-03  2.67E-03  2.88E-03  1.60E-03  5.19E-03  3.24E-04
 res:  1.05E-03  8.83E-03
 ene: -3.13E+00 -1.72E+00 -1.71E+00 -1.67E+00  3.14E-01  3.82E-01  4.20E-01  5.11E-01
 ene:  6.34E-01  6.68E-01
 res:  2.64E-06  1.90E-06  1.65E-06  7.60E-06  3.55E-07  1.01E-07  2.18E-06  2.88E-08
 res:  5.47E-07  5.39E-05
 ene: -3.13E+00 -1.72E+00 -1.71E+00 -1.67E+00  3.14E-01  3.82E-01  4.20E-01  5.10E-01
 ene:  6.34E-01  6.67E-01
 vtowfk : number of one-way 3D ffts skipped in vtowfk until now =15
     eigenvalues (hartree) for   10  bands
              after    3 non-SCF iterations with    4 CG line minimizations
 -3.1340E+00 -1.7154E+00 -1.7089E+00 -1.6687E+00  3.1360E-01  3.8247E-01
  4.2012E-01  5.1050E-01  6.3406E-01  6.6748E-01
 non-scf iterations; kpt #     2  , k= ( -0.25000  0.00000  0.00000  ), band residuals:
 res:  8.22E-03  3.14E-03  3.14E-03  8.03E-03  8.14E-03  4.02E-03  7.57E-04  7.41E-04
 res:  6.80E-04  6.81E-04
 ene: -3.14E+00 -1.71E+00 -1.70E+00 -1.70E+00  2.09E-01  4.09E-01  4.58E-01  4.58E-01
 ene:  5.48E-01  5.48E-01
 res:  3.29E-06  9.50E-06  5.47E-06  5.51E-06  2.64E-08  3.74E-09  1.42E-08  1.14E-08
 res:  9.84E-09  1.08E-08
 ene: -3.14E+00 -1.71E+00 -1.70E+00 -1.70E+00  2.09E-01  4.09E-01  4.58E-01  4.58E-01
 ene:  5.48E-01  5.48E-01
 vtowfk : number of one-way 3D ffts skipped in vtowfk until now =16
     eigenvalues (hartree) for   10  bands
              after    3 non-SCF iterations with    4 CG line minimizations
 -3.1358E+00 -1.7058E+00 -1.7036E+00 -1.7034E+00  2.0913E-01  4.0864E-01
  4.5750E-01  4.5773E-01  5.4775E-01  5.4807E-01
 Total charge density [el/Bohr^3]
      Maximum=    1.1311E+00  at reduced coord.    0.0000    0.1333    0.8667
      Minimum=    2.6689E-02  at reduced coord.    0.5333    0.4667    0.4667
   Integrated=    1.8000E+01
 ETOT  1  -130.04897912547    -1.300E+02 5.387E-05 8.411E+01
 scprqt: <Vxc>= -5.1777374E-01 hartree

Simple mixing update:
  residual square of the potential :   45.971290112614561
 scfcv: previous iteration took 00 [s]

 ITER STEP NUMBER     2
 vtorho : nnsclo_now=2, note that nnsclo,dbl_nnsclo,istep=0 0 2
 non-scf iterations; kpt #     1  , k= ( -0.25000  0.50000  0.00000  ), band residuals:
 res:  4.59E-04  9.11E-05  8.10E-04  1.63E-03  4.60E-03  1.84E-03  5.36E-03  1.32E-04
 res:  3.00E-05  7.12E-03
 ene: -3.40E+00 -1.96E+00 -1.96E+00 -1.91E+00  2.52E-01  3.18E-01  3.63E-01  3.90E-01
 ene:  4.86E-01  5.83E-01
 res:  9.07E-09  5.61E-08  5.56E-08  4.54E-07  5.03E-07  1.03E-06  4.79E-06  4.64E-09
 res:  1.82E-08  2.57E-05
 ene: -3.40E+00 -1.96E+00 -1.96E+00 -1.91E+00  2.52E-01  3.18E-01  3.62E-01  3.90E-01
 ene:  4.86E-01  5.82E-01
 vtowfk : number of one-way 3D ffts skipped in vtowfk until now =17
     eigenvalues (hartree) for   10  bands
              after    3 non-SCF iterations with    4 CG line minimizations
 -3.3977E+00 -1.9629E+00 -1.9554E+00 -1.9123E+00  2.5182E-01  3.1813E-01
  3.6241E-01  3.9026E-01  4.8629E-01  5.8237E-01
 non-scf iterations; kpt #     2  , k= ( -0.25000  0.00000  0.00000  ), band residuals:
 res:  9.88E-04  8.28E-04  4.25E-05  4.33E-05  2.27E-03  1.12E-03  1.18E-04  1.19E-04
 res:  1.61E-04  1.61E-04
 ene: -3.40E+00 -1.95E+00 -1.95E+00 -1.95E+00  2.25E-01  3.26E-01  3.39E-01  3.39E-01
 ene:  4.18E-01  4.18E-01
 res:  1.05E-08  6.33E-07  1.42E-08  1.57E-08  1.62E-07  3.45E-09  1.65E-09  1.61E-09
 res:  7.97E-09  8.36E-09
 ene: -3.40E+00 -1.95E+00 -1.95E+00 -1.95E+00  2.24E-01  3.26E-01  3.39E-01  3.39E-01
 ene:  4.18E-01  4.18E-01
 vtowfk : number of one-way 3D ffts skipped in vtowfk until now =18
     eigenvalues (hartree) for   10  bands
              after    3 non-SCF iterations with    4 CG line minimizations
 -3.3994E+00 -1.9522E+00 -1.9505E+00 -1.9500E+00  2.2449E-01  3.2620E-01
  3.3905E-01  3.3931E-01  4.1793E-01  4.1820E-01
 Total charge density [el/Bohr^3]
      Maximum=    1.1800E+00  at reduced coord.    0.0000    0.1333    0.8667
      Minimum=    1.3842E-02  at reduced coord.    0.5333    0.4667    0.4667
   Integrated=    1.8000E+01
 ETOT  2  -130.16954283792    -1.206E-01 2.570E-05 1.708E+01
 scprqt: <Vxc>= -4.9035098E-01 hartree

 Pulay update with  1 previous iterations:
 mixing of old trial potential : alpha(m:m-4)=  0.688      0.312
 scfcv: previous iteration took 00 [s]

 ITER STEP NUMBER     3
 vtorho : nnsclo_now=1, note that nnsclo,dbl_nnsclo,istep=0 0 3
 non-scf iterations; kpt #     1  , k= ( -0.25000  0.50000  0.00000  ), band residuals:
 res:  1.77E-04  8.72E-06  9.33E-05  1.42E-04  2.00E-04  4.24E-05  6.49E-04  6.90E-06
 res:  2.21E-06  8.19E-04
 ene: -3.27E+00 -1.85E+00 -1.84E+00 -1.80E+00  3.05E-01  3.71E-01  4.10E-01  4.56E-01
 ene:  5.58E-01  6.34E-01
 vtowfk : number of one-way 3D ffts skipped in vtowfk until now =19
     eigenvalues (hartree) for   10  bands
              after    2 non-SCF iterations with    4 CG line minimizations
 -3.2679E+00 -1.8467E+00 -1.8398E+00 -1.7984E+00  3.0494E-01  3.7076E-01
  4.1015E-01  4.5572E-01  5.5786E-01  6.3385E-01
 non-scf iterations; kpt #     2  , k= ( -0.25000  0.00000  0.00000  ), band residuals:
 res:  2.61E-04  9.33E-05  6.20E-06  6.80E-06  4.80E-04  3.33E-04  1.12E-05  1.12E-05
 res:  1.52E-05  1.55E-05
 ene: -3.27E+00 -1.84E+00 -1.83E+00 -1.83E+00  2.54E-01  3.79E-01  4.04E-01  4.04E-01
 ene:  4.85E-01  4.85E-01
 vtowfk : number of one-way 3D ffts skipped in vtowfk until now =20
     eigenvalues (hartree) for   10  bands
              after    2 non-SCF iterations with    4 CG line minimizations
 -3.2697E+00 -1.8366E+00 -1.8347E+00 -1.8342E+00  2.5366E-01  3.7947E-01
  4.0354E-01  4.0375E-01  4.8529E-01  4.8545E-01
 Total charge density [el/Bohr^3]
      Maximum=    1.1614E+00  at reduced coord.    0.0000    0.1333    0.8667
      Minimum=    1.6443E-02  at reduced coord.    0.5333    0.4667    0.4667
   Integrated=    1.8000E+01
 ETOT  3  -130.19797557265    -2.843E-02 8.191E-04 1.560E-02
 scprqt: <Vxc>= -4.9897277E-01 hartree

 Pulay update with  2 previous iterations:
 mixing of old trial potential : alpha(m:m-4)=  0.994      0.235E-02  0.414E-02
 scfcv: previous iteration took 00 [s]

 ITER STEP NUMBER     4
 vtorho : nnsclo_now=1, note that nnsclo,dbl_nnsclo,istep=0 0 4
 non-scf iterations; kpt #     1  , k= ( -0.25000  0.50000  0.00000  ), band residuals:
 res:  1.47E-08  6.89E-09  1.86E-08  4.31E-08  5.12E-08  3.63E-08  1.15E-07  1.23E-08
 res:  1.18E-08  2.92E-07
 ene: -3.28E+00 -1.85E+00 -1.85E+00 -1.81E+00  2.96E-01  3.62E-01  4.02E-01  4.47E-01
 ene:  5.50E-01  6.25E-01
 vtowfk : number of one-way 3D ffts skipped in vtowfk until now =21
     eigenvalues (hartree) for   10  bands
              after    2 non-SCF iterations with    4 CG line minimizations
 -3.2761E+00 -1.8545E+00 -1.8476E+00 -1.8061E+00  2.9645E-01  3.6243E-01
  4.0166E-01  4.4748E-01  5.4967E-01  6.2547E-01
 non-scf iterations; kpt #     2  , k= ( -0.25000  0.00000  0.00000  ), band residuals:
 res:  1.53E-08  3.63E-08  1.18E-08  1.35E-08  3.57E-08  1.90E-08  3.74E-09  1.61E-08
 res:  3.70E-09  7.56E-09
 ene: -3.28E+00 -1.84E+00 -1.84E+00 -1.84E+00  2.45E-01  3.71E-01  3.95E-01  3.95E-01
 ene:  4.77E-01  4.77E-01
 vtowfk : number of one-way 3D ffts skipped in vtowfk until now =22
     eigenvalues (hartree) for   10  bands
              after    2 non-SCF iterations with    4 CG line minimizations
 -3.2779E+00 -1.8443E+00 -1.8425E+00 -1.8421E+00  2.4491E-01  3.7110E-01
  3.9521E-01  3.9545E-01  4.7714E-01  4.7722E-01
 Total charge density [el/Bohr^3]
      Maximum=    1.1612E+00  at reduced coord.    0.0000    0.1333    0.8667
      Minimum=    1.6385E-02  at reduced coord.    0.5333    0.4667    0.4667
   Integrated=    1.8000E+01
 ETOT  4  -130.19798715050    -1.158E-05 2.923E-07 1.839E-04
 scprqt: <Vxc>= -4.9904588E-01 hartree

 Pulay update with  3 previous iterations:
 mixing of old trial potential : alpha(m:m-4)=   1.04     -0.349E-01 -0.422E-03 -0.112E-02
 scfcv: previous iteration took 00 [s]

 ITER STEP NUMBER     5
 vtorho : nnsclo_now=1, note that nnsclo,dbl_nnsclo,istep=0 0 5
 non-scf iterations; kpt #     1  , k= ( -0.25000  0.50000  0.00000  ), band residuals:
 res:  4.64E-10  2.69E-10  2.63E-10  3.26E-10  1.57E-09  1.75E-09  1.49E-09  9.63E-10
 res:  1.07E-09  1.72E-08
 ene: -3.28E+00 -1.85E+00 -1.85E+00 -1.81E+00  2.96E-01  3.62E-01  4.02E-01  4.47E-01
 ene:  5.50E-01  6.25E-01
 vtowfk : number of one-way 3D ffts skipped in vtowfk until now =23
     eigenvalues (hartree) for   10  bands
              after    2 non-SCF iterations with    4 CG line minimizations
 -3.2763E+00 -1.8547E+00 -1.8477E+00 -1.8063E+00  2.9632E-01  3.6233E-01
  4.0154E-01  4.4735E-01  5.4953E-01  6.2536E-01
 non-scf iterations; kpt #     2  , k= ( -0.25000  0.00000  0.00000  ), band residuals:
 res:  5.43E-10  2.57E-10  6.43E-11  1.24E-10  1.95E-09  1.46E-09  2.61E-11  1.41E-09
 res:  2.84E-11  7.03E-10
 ene: -3.28E+00 -1.84E+00 -1.84E+00 -1.84E+00  2.45E-01  3.71E-01  3.95E-01  3.95E-01
 ene:  4.77E-01  4.77E-01
 vtowfk : number of one-way 3D ffts skipped in vtowfk until now =24
     eigenvalues (hartree) for   10  bands
              after    2 non-SCF iterations with    4 CG line minimizations
 -3.2781E+00 -1.8445E+00 -1.8426E+00 -1.8422E+00  2.4482E-01  3.7098E-01
  3.9507E-01  3.9531E-01  4.7703E-01  4.7708E-01
 Total charge density [el/Bohr^3]
      Maximum=    1.1612E+00  at reduced coord.    0.0000    0.1333    0.8667
      Minimum=    1.6365E-02  at reduced coord.    0.5333    0.4667    0.4667
   Integrated=    1.8000E+01
 ETOT  5  -130.19798710318     4.731E-08 1.724E-08 6.710E-06
 scprqt: <Vxc>= -4.9903438E-01 hartree

 Pulay update with  4 previous iterations:
 mixing of old trial potential : alpha(m:m-4)=   1.21     -0.220      0.585E-02 -0.349E-04 -0.463E-04
 scfcv: previous iteration took 00 [s]

 ITER STEP NUMBER     6
 vtorho : nnsclo_now=1, note that nnsclo,dbl_nnsclo,istep=0 0 6
 non-scf iterations; kpt #     1  , k= ( -0.25000  0.50000  0.00000  ), band residuals:
 res:  3.20E-11  1.70E-11  2.08E-11  1.84E-11  8.62E-11  9.55E-11  1.15E-10  5.54E-11
 res:  5.87E-11  3.21E-10
 ene: -3.28E+00 -1.85E+00 -1.85E+00 -1.81E+00  2.96E-01  3.62E-01  4.02E-01  4.47E-01
 ene:  5.50E-01  6.25E-01
 vtowfk : number of one-way 3D ffts skipped in vtowfk until now =25
     eigenvalues (hartree) for   10  bands
              after    2 non-SCF iterations with    4 CG line minimizations
 -3.2763E+00 -1.8547E+00 -1.8478E+00 -1.8063E+00  2.9632E-01  3.6234E-01
  4.0154E-01  4.4734E-01  5.4952E-01  6.2536E-01
 non-scf iterations; kpt #     2  , k= ( -0.25000  0.00000  0.00000  ), band residuals:
 res:  4.23E-11  1.29E-11  6.45E-13  5.08E-12  1.39E-10  9.78E-11  3.67E-12  8.75E-11
 res:  3.97E-12  3.97E-11
 ene: -3.28E+00 -1.84E+00 -1.84E+00 -1.84E+00  2.45E-01  3.71E-01  3.95E-01  3.95E-01
 ene:  4.77E-01  4.77E-01
 vtowfk : number of one-way 3D ffts skipped in vtowfk until now =26
     eigenvalues (hartree) for   10  bands
              after    2 non-SCF iterations with    4 CG line minimizations
 -3.2781E+00 -1.8445E+00 -1.8427E+00 -1.8423E+00  2.4482E-01  3.7098E-01
  3.9506E-01  3.9530E-01  4.7703E-01  4.7708E-01
 Total charge density [el/Bohr^3]
      Maximum=    1.1612E+00  at reduced coord.    0.0000    0.1333    0.8667
      Minimum=    1.6361E-02  at reduced coord.    0.5333    0.4667    0.4667
   Integrated=    1.8000E+01
 ETOT  6  -130.19798705306     5.012E-08 3.213E-10 6.567E-09
 scprqt: <Vxc>= -4.9903098E-01 hartree

 At SCF step    6, etot is converged : 
  for the second time, diff in etot=  5.012E-08 < toldfe=  1.000E-06

 Cartesian components of stress tensor (hartree/bohr^3)
  sigma(1 1)= -1.95066020E-02  sigma(3 2)=  0.00000000E+00
  sigma(2 2)= -1.95066020E-02  sigma(3 1)=  0.00000000E+00
  sigma(3 3)= -1.95066020E-02  sigma(2 1)=  0.00000000E+00

 fftdatar_write: About to write data to: PdGeomOpt_o_DS1_TIM2_DEN with iomode IO_MODE_FORTRAN
 IO operation completed. cpu_time:       0.0 [s], walltime:       0.0 [s]

---OUTPUT-----------------------------------------------------------------------

 Cartesian coordinates (xcart) [bohr]
  0.00000000000000E+00  0.00000000000000E+00  0.00000000000000E+00
 Reduced coordinates (xred)
  0.00000000000000E+00  0.00000000000000E+00  0.00000000000000E+00
 Cartesian forces (fcart) [Ha/bohr]; max,rms= 0.00000E+00 0.00000E+00 (free atoms)
 -0.00000000000000E+00 -0.00000000000000E+00 -0.00000000000000E+00
 Reduced forces (fred)
  0.00000000000000E+00  0.00000000000000E+00  0.00000000000000E+00
 Scale of Primitive Cell (acell) [bohr]
  7.64796421910767E+00  7.64796421910767E+00  7.64796421910767E+00
 Real space primitive translations (rprimd) [bohr]
  0.00000000000000E+00  3.82398210955383E+00  3.82398210955383E+00
  3.82398210955383E+00  0.00000000000000E+00  3.82398210955383E+00
  3.82398210955383E+00  3.82398210955383E+00  0.00000000000000E+00
 Unitary Cell Volume (ucvol) [Bohr^3]=  1.11834950785954E+02
 Angles (23,13,12)= [degrees]
  6.00000000000000E+01  6.00000000000000E+01  6.00000000000000E+01
 Lengths [Bohr]
  5.40792736160311E+00  5.40792736160311E+00  5.40792736160311E+00
 Stress tensor in cartesian coordinates (strten) [Ha/bohr^3]
 -1.95066020056873E-02  0.00000000000000E+00  0.00000000000000E+00
  0.00000000000000E+00 -1.95066020056873E-02  0.00000000000000E+00
  0.00000000000000E+00  0.00000000000000E+00 -1.95066020056873E-02
 Total energy (etotal) [Ha]= -1.30197987053063E+02

 Difference of energy with previous step (new-old):
           Absolute (Ha)=-1.43500E-02
           Relative     =-1.10222E-04
 fconv : at Broyd/MD step   2, gradients have not converged yet. 
  max grad (force/stress) = 1.9507E+00 > tolmxf= 5.0000E-05 ha/bohr (free atoms)

 Geometry Optimization Precondition:           0
 EXIT:           1           1
 mover: previous time step took 00 [s]

--- Iteration: ( 3/10) Internal Cycle: (1/1)
--------------------------------------------------------------------------------

 Cartesian coordinates (xcart) [bohr]
  0.00000000000000E+00  0.00000000000000E+00  0.00000000000000E+00
 Reduced coordinates (xred)
  0.00000000000000E+00  0.00000000000000E+00  0.00000000000000E+00
 Scale of Primitive Cell (acell) [bohr]
  6.87424956051063E+00  6.87424956051063E+00  6.87424956051063E+00
 Real space primitive translations (rprimd) [bohr]
  0.00000000000000E+00  3.43712478025531E+00  3.43712478025531E+00
  3.43712478025531E+00  0.00000000000000E+00  3.43712478025531E+00
  3.43712478025531E+00  3.43712478025531E+00  0.00000000000000E+00
 Unitary Cell Volume (ucvol) [Bohr^3]=  8.12111933788178E+01
 Angles (23,13,12)= [degrees]
  6.00000000000000E+01  6.00000000000000E+01  6.00000000000000E+01
 Lengths [Bohr]
  4.86082847980571E+00  4.86082847980571E+00  4.86082847980571E+00

---SELF-CONSISTENT-FIELD CONVERGENCE--------------------------------------------

 getcut: wavevector=  0.0000  0.0000  0.0000  ngfft=  15  15  15
         ecut(hartree)=      8.000   => boxcut(ratio)=   2.27359

 getcut : COMMENT -
  Note that boxcut > 2.2 ; recall that boxcut=Gcut(box)/Gcut(sphere) = 2
  is sufficient for exact treatment of convolution.
  Such a large boxcut is a waste : you could raise ecut
  e.g. ecut=   10.338424 Hartrees makes boxcut=2


 ITER STEP NUMBER     1
 vtorho : nnsclo_now=2, note that nnsclo,dbl_nnsclo,istep=0 0 1
 non-scf iterations; kpt #     1  , k= ( -0.25000  0.50000  0.00000  ), band residuals:
 res:  6.52E-02  3.05E-03  1.07E-02  1.38E-02  2.42E-02  3.49E-03  4.27E-02  1.49E-04
 res:  9.54E-04  5.21E-02
 ene: -3.27E+00 -1.87E+00 -1.84E+00 -1.80E+00  4.90E-01  5.37E-01  5.51E-01  6.16E-01
 ene:  6.69E-01  9.04E-01
 res:  1.04E-05  3.08E-04  1.33E-04  6.15E-05  1.55E-04  2.09E-04  6.48E-05  1.75E-05
 res:  4.42E-05  5.04E-05
 ene: -3.27E+00 -1.87E+00 -1.84E+00 -1.80E+00  4.89E-01  5.38E-01  5.54E-01  6.16E-01
 ene:  6.69E-01  8.99E-01
 vtowfk : number of one-way 3D ffts skipped in vtowfk until now =27
     eigenvalues (hartree) for   10  bands
              after    3 non-SCF iterations with    4 CG line minimizations
 -3.2708E+00 -1.8657E+00 -1.8361E+00 -1.8012E+00  4.8917E-01  5.3834E-01
  5.5427E-01  6.1621E-01  6.6901E-01  8.9861E-01
 non-scf iterations; kpt #     2  , k= ( -0.25000  0.00000  0.00000  ), band residuals:
 res:  9.04E-02  7.44E-03  3.02E-03  3.09E-03  8.45E-02  1.34E-02  6.62E-04  6.58E-04
 res:  2.04E-03  2.04E-03
 ene: -3.27E+00 -1.85E+00 -1.75E+00 -1.75E+00  5.14E-01  6.05E-01  6.06E-01  6.23E-01
 ene:  6.37E-01  6.38E-01
 res:  1.09E-05  9.39E-05  1.94E-04  1.96E-04  9.44E-05  8.82E-05  8.72E-05  1.65E-05
 res:  1.08E-04  1.06E-04
 ene: -3.27E+00 -1.85E+00 -1.75E+00 -1.75E+00  5.17E-01  6.06E-01  6.06E-01  6.19E-01
 ene:  6.37E-01  6.37E-01
 vtowfk : number of one-way 3D ffts skipped in vtowfk until now =28
     eigenvalues (hartree) for   10  bands
              after    3 non-SCF iterations with    4 CG line minimizations
 -3.2722E+00 -1.8487E+00 -1.7461E+00 -1.7459E+00  5.1745E-01  6.0550E-01
  6.0628E-01  6.1889E-01  6.3666E-01  6.3741E-01
 Total charge density [el/Bohr^3]
      Maximum=    1.2285E+00  at reduced coord.    0.1333    0.8667    0.9333
      Minimum=    1.8516E-02  at reduced coord.    0.5333    0.4667    0.4667
   Integrated=    1.8000E+01
 ETOT  1  -129.77365923484    -1.298E+02 3.077E-04 2.713E+02
 scprqt: <Vxc>= -5.4060723E-01 hartree

Simple mixing update:
  residual square of the potential :   165.22765152931538
 scfcv: previous iteration took 00 [s]

 ITER STEP NUMBER     2
 vtorho : nnsclo_now=2, note that nnsclo,dbl_nnsclo,istep=0 0 2
 non-scf iterations; kpt #     1  , k= ( -0.25000  0.50000  0.00000  ), band residuals:
 res:  3.03E-03  6.61E-03  1.93E-03  3.16E-04  2.86E-03  8.65E-03  9.41E-03  5.22E-04
 res:  2.67E-04  2.51E-02
 ene: -2.84E+00 -1.48E+00 -1.45E+00 -1.41E+00  5.60E-01  6.09E-01  6.73E-01  7.73E-01
 ene:  8.91E-01  9.45E-01
 res:  1.31E-07  1.62E-06  1.14E-07  1.15E-08  7.49E-07  5.66E-07  1.97E-06  2.85E-09
 res:  7.47E-09  7.13E-06
 ene: -2.84E+00 -1.48E+00 -1.45E+00 -1.41E+00  5.59E-01  6.08E-01  6.73E-01  7.73E-01
 ene:  8.91E-01  9.44E-01
 vtowfk : number of one-way 3D ffts skipped in vtowfk until now =29
     eigenvalues (hartree) for   10  bands
              after    3 non-SCF iterations with    4 CG line minimizations
 -2.8404E+00 -1.4753E+00 -1.4455E+00 -1.4131E+00  5.5942E-01  6.0847E-01
  6.7260E-01  7.7251E-01  8.9052E-01  9.4409E-01
 non-scf iterations; kpt #     2  , k= ( -0.25000  0.00000  0.00000  ), band residuals:
 res:  5.66E-03  3.07E-03  6.82E-05  6.83E-05  1.19E-02  2.54E-04  3.03E-04  1.35E-02
 res:  1.80E-04  1.81E-04
 ene: -2.84E+00 -1.46E+00 -1.36E+00 -1.36E+00  4.68E-01  6.77E-01  7.58E-01  7.58E-01
 ene:  7.96E-01  7.96E-01
 res:  1.05E-07  1.99E-07  6.24E-09  6.29E-09  9.50E-07  4.28E-07  7.14E-09  7.02E-09
 res:  1.04E-08  2.19E-09
 ene: -2.84E+00 -1.46E+00 -1.36E+00 -1.36E+00  4.67E-01  6.77E-01  7.58E-01  7.58E-01
 ene:  7.96E-01  7.96E-01
 vtowfk : number of one-way 3D ffts skipped in vtowfk until now =30
     eigenvalues (hartree) for   10  bands
              after    3 non-SCF iterations with    4 CG line minimizations
 -2.8424E+00 -1.4576E+00 -1.3622E+00 -1.3620E+00  4.6744E-01  6.7663E-01
  7.5813E-01  7.5817E-01  7.9560E-01  7.9584E-01
 Total charge density [el/Bohr^3]
      Maximum=    1.1443E+00  at reduced coord.    0.1333    0.8667    0.9333
      Minimum=    4.1085E-02  at reduced coord.    0.5333    0.4667    0.4667
   Integrated=    1.8000E+01
 ETOT  2  -130.10813741395    -3.345E-01 7.128E-06 2.568E+01
 scprqt: <Vxc>= -5.8650764E-01 hartree

 Pulay update with  1 previous iterations:
 mixing of old trial potential : alpha(m:m-4)=  0.768      0.232
 scfcv: previous iteration took 00 [s]

 ITER STEP NUMBER     3
 vtorho : nnsclo_now=1, note that nnsclo,dbl_nnsclo,istep=0 0 3
 non-scf iterations; kpt #     1  , k= ( -0.25000  0.50000  0.00000  ), band residuals:
 res:  4.02E-04  1.05E-03  2.75E-04  6.58E-05  4.42E-04  4.35E-04  7.71E-04  5.68E-05
 res:  4.68E-06  1.46E-03
 ene: -3.02E+00 -1.63E+00 -1.60E+00 -1.57E+00  5.02E-01  5.48E-01  6.07E-01  6.93E-01
 ene:  7.94E-01  8.71E-01
 vtowfk : number of one-way 3D ffts skipped in vtowfk until now =31
     eigenvalues (hartree) for   10  bands
              after    2 non-SCF iterations with    4 CG line minimizations
 -3.0192E+00 -1.6298E+00 -1.5999E+00 -1.5665E+00  5.0179E-01  5.4797E-01
  6.0651E-01  6.9330E-01  7.9442E-01  8.7099E-01
 non-scf iterations; kpt #     2  , k= ( -0.25000  0.00000  0.00000  ), band residuals:
 res:  9.19E-04  4.36E-04  1.46E-05  1.48E-05  1.12E-03  2.95E-04  9.75E-06  9.79E-06
 res:  1.23E-05  1.23E-05
 ene: -3.02E+00 -1.61E+00 -1.51E+00 -1.51E+00  4.28E-01  6.15E-01  6.87E-01  6.88E-01
 ene:  7.08E-01  7.08E-01
 vtowfk : number of one-way 3D ffts skipped in vtowfk until now =32
     eigenvalues (hartree) for   10  bands
              after    2 non-SCF iterations with    4 CG line minimizations
 -3.0212E+00 -1.6121E+00 -1.5135E+00 -1.5134E+00  4.2762E-01  6.1498E-01
  6.8736E-01  6.8774E-01  7.0775E-01  7.0796E-01
 Total charge density [el/Bohr^3]
      Maximum=    1.1658E+00  at reduced coord.    0.1333    0.8667    0.9333
      Minimum=    3.7052E-02  at reduced coord.    0.5333    0.4667    0.4667
   Integrated=    1.8000E+01
 ETOT  3  -130.13874647025    -3.061E-02 1.462E-03 9.556E-02
 scprqt: <Vxc>= -5.7834285E-01 hartree

 Pulay update with  2 previous iterations:
 mixing of old trial potential : alpha(m:m-4)=   1.11     -0.833E-01 -0.239E-01
 scfcv: previous iteration took 00 [s]

 ITER STEP NUMBER     4
 vtorho : nnsclo_now=1, note that nnsclo,dbl_nnsclo,istep=0 0 4
 non-scf iterations; kpt #     1  , k= ( -0.25000  0.50000  0.00000  ), band residuals:
 res:  1.24E-07  3.92E-07  1.34E-07  3.43E-08  5.56E-07  5.96E-07  1.83E-07  1.96E-07
 res:  1.63E-07  5.36E-07
 ene: -3.01E+00 -1.62E+00 -1.59E+00 -1.56E+00  5.11E-01  5.56E-01  6.16E-01  7.02E-01
 ene:  8.03E-01  8.79E-01
 vtowfk : number of one-way 3D ffts skipped in vtowfk until now =33
     eigenvalues (hartree) for   10  bands
              after    2 non-SCF iterations with    4 CG line minimizations
 -3.0122E+00 -1.6227E+00 -1.5928E+00 -1.5593E+00  5.1081E-01  5.5593E-01
  6.1561E-01  7.0198E-01  8.0315E-01  8.7939E-01
 non-scf iterations; kpt #     2  , k= ( -0.25000  0.00000  0.00000  ), band residuals:
 res:  2.57E-07  1.25E-07  1.23E-08  1.12E-08  6.54E-07  4.42E-07  1.61E-07  1.26E-07
 res:  1.24E-07  1.49E-07
 ene: -3.01E+00 -1.61E+00 -1.51E+00 -1.51E+00  4.36E-01  6.24E-01  6.96E-01  6.97E-01
 ene:  7.16E-01  7.17E-01
 vtowfk : number of one-way 3D ffts skipped in vtowfk until now =34
     eigenvalues (hartree) for   10  bands
              after    2 non-SCF iterations with    4 CG line minimizations
 -3.0141E+00 -1.6050E+00 -1.5062E+00 -1.5062E+00  4.3603E-01  6.2407E-01
  6.9648E-01  6.9704E-01  7.1629E-01  7.1658E-01
 Total charge density [el/Bohr^3]
      Maximum=    1.1663E+00  at reduced coord.    0.1333    0.8667    0.9333
      Minimum=    3.7502E-02  at reduced coord.    0.5333    0.4667    0.4667
   Integrated=    1.8000E+01
 ETOT  4  -130.13877867012    -3.220E-05 6.536E-07 4.574E-04
 scprqt: <Vxc>= -5.7843372E-01 hartree

 Pulay update with  3 previous iterations:
 mixing of old trial potential : alpha(m:m-4)=  0.951      0.516E-01 -0.178E-02 -0.771E-03
 scfcv: previous iteration took 00 [s]

 ITER STEP NUMBER     5
 vtorho : nnsclo_now=1, note that nnsclo,dbl_nnsclo,istep=0 0 5
 non-scf iterations; kpt #     1  , k= ( -0.25000  0.50000  0.00000  ), band residuals:
 res:  6.67E-10  4.10E-10  1.56E-10  1.83E-10  6.00E-10  9.68E-10  2.45E-09  2.60E-09
 res:  2.48E-09  4.09E-09
 ene: -3.01E+00 -1.62E+00 -1.59E+00 -1.56E+00  5.11E-01  5.56E-01  6.15E-01  7.02E-01
 ene:  8.03E-01  8.79E-01
 vtowfk : number of one-way 3D ffts skipped in vtowfk until now =35
     eigenvalues (hartree) for   10  bands
              after    2 non-SCF iterations with    4 CG line minimizations
 -3.0122E+00 -1.6228E+00 -1.5929E+00 -1.5594E+00  5.1073E-01  5.5583E-01
  6.1550E-01  7.0190E-01  8.0304E-01  8.7929E-01
 non-scf iterations; kpt #     2  , k= ( -0.25000  0.00000  0.00000  ), band residuals:
 res:  1.19E-09  1.87E-10  6.56E-11  1.58E-11  1.61E-09  5.56E-10  1.79E-09  2.03E-09
 res:  2.03E-09  1.21E-09
 ene: -3.01E+00 -1.61E+00 -1.51E+00 -1.51E+00  4.36E-01  6.24E-01  6.96E-01  6.97E-01
 ene:  7.16E-01  7.17E-01
 vtowfk : number of one-way 3D ffts skipped in vtowfk until now =36
     eigenvalues (hartree) for   10  bands
              after    2 non-SCF iterations with    4 CG line minimizations
 -3.0141E+00 -1.6051E+00 -1.5063E+00 -1.5063E+00  4.3595E-01  6.2395E-01
  6.9637E-01  6.9696E-01  7.1620E-01  7.1651E-01
 Total charge density [el/Bohr^3]
      Maximum=    1.1663E+00  at reduced coord.    0.1333    0.8667    0.9333
      Minimum=    3.7514E-02  at reduced coord.    0.5333    0.4667    0.4667
   Integrated=    1.8000E+01
 ETOT  5  -130.13877852780     1.423E-07 4.087E-09 9.653E-06
 scprqt: <Vxc>= -5.7843066E-01 hartree

 Pulay update with  4 previous iterations:
 mixing of old trial potential : alpha(m:m-4)=   1.12     -0.112     -0.783E-02  0.361E-03 -0.897E-05
 scfcv: previous iteration took 00 [s]

 ITER STEP NUMBER     6
 vtorho : nnsclo_now=1, note that nnsclo,dbl_nnsclo,istep=0 0 6
 non-scf iterations; kpt #     1  , k= ( -0.25000  0.50000  0.00000  ), band residuals:
 res:  5.62E-11  9.54E-11  2.90E-11  2.43E-11  9.55E-11  1.59E-10  9.58E-11  6.96E-11
 res:  5.05E-11  2.18E-10
 ene: -3.01E+00 -1.62E+00 -1.59E+00 -1.56E+00  5.11E-01  5.56E-01  6.16E-01  7.02E-01
 ene:  8.03E-01  8.79E-01
 vtowfk : number of one-way 3D ffts skipped in vtowfk until now =37
     eigenvalues (hartree) for   10  bands
              after    2 non-SCF iterations with    4 CG line minimizations
 -3.0122E+00 -1.6227E+00 -1.5928E+00 -1.5593E+00  5.1075E-01  5.5583E-01
  6.1551E-01  7.0192E-01  8.0307E-01  8.7930E-01
 non-scf iterations; kpt #     2  , k= ( -0.25000  0.00000  0.00000  ), band residuals:
 res:  1.02E-10  4.50E-11  8.63E-12  1.39E-12  2.33E-10  1.37E-10  1.13E-10  6.10E-12
 res:  4.54E-12  4.96E-11
 ene: -3.01E+00 -1.61E+00 -1.51E+00 -1.51E+00  4.36E-01  6.24E-01  6.96E-01  6.97E-01
 ene:  7.16E-01  7.17E-01
 vtowfk : number of one-way 3D ffts skipped in vtowfk until now =38
     eigenvalues (hartree) for   10  bands
              after    2 non-SCF iterations with    4 CG line minimizations
 -3.0141E+00 -1.6050E+00 -1.5063E+00 -1.5062E+00  4.3596E-01  6.2396E-01
  6.9639E-01  6.9698E-01  7.1622E-01  7.1654E-01
 Total charge density [el/Bohr^3]
      Maximum=    1.1663E+00  at reduced coord.    0.1333    0.8667    0.9333
      Minimum=    3.7521E-02  at reduced coord.    0.5333    0.4667    0.4667
   Integrated=    1.8000E+01
 ETOT  6  -130.13877845665     7.116E-08 2.330E-10 1.408E-08
 scprqt: <Vxc>= -5.7843419E-01 hartree

 At SCF step    6, etot is converged : 
  for the second time, diff in etot=  7.116E-08 < toldfe=  1.000E-06

 Cartesian components of stress tensor (hartree/bohr^3)
  sigma(1 1)= -4.61835891E-02  sigma(3 2)=  0.00000000E+00
  sigma(2 2)= -4.61835891E-02  sigma(3 1)=  0.00000000E+00
  sigma(3 3)= -4.61835891E-02  sigma(2 1)=  0.00000000E+00

 fftdatar_write: About to write data to: PdGeomOpt_o_DS1_TIM3_DEN with iomode IO_MODE_FORTRAN
 IO operation completed. cpu_time:       0.0 [s], walltime:       0.0 [s]

---OUTPUT-----------------------------------------------------------------------

 Cartesian coordinates (xcart) [bohr]
  0.00000000000000E+00  0.00000000000000E+00  0.00000000000000E+00
 Reduced coordinates (xred)
  0.00000000000000E+00  0.00000000000000E+00  0.00000000000000E+00
 Cartesian forces (fcart) [Ha/bohr]; max,rms= 0.00000E+00 0.00000E+00 (free atoms)
 -0.00000000000000E+00 -0.00000000000000E+00 -0.00000000000000E+00
 Reduced forces (fred)
  0.00000000000000E+00  0.00000000000000E+00  0.00000000000000E+00
 Scale of Primitive Cell (acell) [bohr]
  6.87424956051063E+00  6.87424956051063E+00  6.87424956051063E+00
 Real space primitive translations (rprimd) [bohr]
  0.00000000000000E+00  3.43712478025531E+00  3.43712478025531E+00
  3.43712478025531E+00  0.00000000000000E+00  3.43712478025531E+00
  3.43712478025531E+00  3.43712478025531E+00  0.00000000000000E+00
 Unitary Cell Volume (ucvol) [Bohr^3]=  8.12111933788178E+01
 Angles (23,13,12)= [degrees]
  6.00000000000000E+01  6.00000000000000E+01  6.00000000000000E+01
 Lengths [Bohr]
  4.86082847980571E+00  4.86082847980571E+00  4.86082847980571E+00
 Stress tensor in cartesian coordinates (strten) [Ha/bohr^3]
 -4.61835890852436E-02  0.00000000000000E+00  0.00000000000000E+00
  0.00000000000000E+00 -4.61835890852436E-02  0.00000000000000E+00
  0.00000000000000E+00  0.00000000000000E+00 -4.61835890852436E-02
 Total energy (etotal) [Ha]= -1.30138778456648E+02

 Difference of energy with previous step (new-old):
           Absolute (Ha)= 5.92086E-02
           Relative     = 4.54862E-04
 fconv : at Broyd/MD step   3, gradients have not converged yet. 
  max grad (force/stress) = 4.6184E+00 > tolmxf= 5.0000E-05 ha/bohr (free atoms)

 Geometry Optimization Precondition:           0
 EXIT:           1           1
 mover: previous time step took 00 [s]

--- Iteration: ( 4/10) Internal Cycle: (1/1)
--------------------------------------------------------------------------------

 Cartesian coordinates (xcart) [bohr]
  0.00000000000000E+00  0.00000000000000E+00  0.00000000000000E+00
 Reduced coordinates (xred)
  0.00000000000000E+00  0.00000000000000E+00  0.00000000000000E+00
 Scale of Primitive Cell (acell) [bohr]
  8.72365668959375E+00  8.72365668959375E+00  8.72365668959375E+00
 Real space primitive translations (rprimd) [bohr]
  0.00000000000000E+00  4.36182834479688E+00  4.36182834479688E+00
  4.36182834479688E+00  0.00000000000000E+00  4.36182834479688E+00
  4.36182834479688E+00  4.36182834479688E+00  0.00000000000000E+00
 Unitary Cell Volume (ucvol) [Bohr^3]=  1.65972336080545E+02
 Angles (23,13,12)= [degrees]
  6.00000000000000E+01  6.00000000000000E+01  6.00000000000000E+01
 Lengths [Bohr]
  6.16855680195513E+00  6.16855680195513E+00  6.16855680195513E+00

---SELF-CONSISTENT-FIELD CONVERGENCE--------------------------------------------

 getcut: wavevector=  0.0000  0.0000  0.0000  ngfft=  15  15  15
         ecut(hartree)=      8.000   => boxcut(ratio)=   1.79159

 ITER STEP NUMBER     1
 vtorho : nnsclo_now=2, note that nnsclo,dbl_nnsclo,istep=0 0 1
 non-scf iterations; kpt #     1  , k= ( -0.25000  0.50000  0.00000  ), band residuals:
 res:  4.50E-02  3.23E-03  1.32E-03  1.85E-03  3.80E-02  6.62E-02  8.65E-02  6.49E-03
 res:  5.58E-03  7.12E-02
 ene: -2.35E+00 -7.18E-01 -7.00E-01 -6.66E-01 -1.62E-01  2.41E-02  1.22E-01  2.79E-01
 ene:  4.20E-01  8.55E-01
 res:  7.50E-05  3.55E-07  7.95E-07  6.56E-05  1.70E-03  2.71E-05  4.38E-05  1.25E-05
 res:  1.35E-03  3.14E-03
 ene: -2.35E+00 -7.18E-01 -7.00E-01 -6.68E-01 -2.03E-01  2.29E-02  1.20E-01  2.75E-01
 ene:  3.56E-01  6.86E-01
 vtowfk : number of one-way 3D ffts skipped in vtowfk until now =39
     eigenvalues (hartree) for   10  bands
              after    3 non-SCF iterations with    4 CG line minimizations
 -2.3530E+00 -7.1850E-01 -6.9967E-01 -6.6789E-01 -2.0299E-01  2.2919E-02
  1.2016E-01  2.7515E-01  3.5603E-01  6.8569E-01
 non-scf iterations; kpt #     2  , k= ( -0.25000  0.00000  0.00000  ), band residuals:
 res:  7.47E-02  1.54E-03  1.32E-03  1.33E-03  9.62E-02  2.26E-02  4.50E-03  4.69E-03
 res:  4.42E-03  4.28E-03
 ene: -2.35E+00 -7.61E-01 -6.87E-01 -6.86E-01 -2.78E-01  1.13E-01  3.23E-01  3.24E-01
 ene:  5.10E-01  5.12E-01
 res:  5.15E-05  2.44E-06  2.77E-07  2.69E-07  3.86E-05  1.95E-05  7.94E-06  7.67E-06
 res:  1.21E-02  7.81E-07
 ene: -2.35E+00 -7.61E-01 -6.87E-01 -6.86E-01 -2.91E-01  1.10E-01  3.02E-01  3.20E-01
 ene:  3.21E-01  5.11E-01
 vtowfk : number of one-way 3D ffts skipped in vtowfk until now =40
     eigenvalues (hartree) for   10  bands
              after    3 non-SCF iterations with    4 CG line minimizations
 -2.3523E+00 -7.6083E-01 -6.8742E-01 -6.8644E-01 -2.9056E-01  1.0987E-01
  3.0217E-01  3.2021E-01  3.2102E-01  5.1125E-01
 Total charge density [el/Bohr^3]
      Maximum=    8.3180E-01  at reduced coord.    0.0667    0.9333    0.9333
      Minimum=    3.5255E-02  at reduced coord.    0.3333    0.0000    0.0000
   Integrated=    1.8000E+01
 ETOT  1  -117.92748933440    -1.179E+02 1.215E-02 5.973E+03
 scprqt: <Vxc>= -4.9677176E-01 hartree

Simple mixing update:
  residual square of the potential :   2779.8848006471835
 scfcv: previous iteration took 00 [s]

 ITER STEP NUMBER     2
 vtorho : nnsclo_now=2, note that nnsclo,dbl_nnsclo,istep=0 0 2
 non-scf iterations; kpt #     1  , k= ( -0.25000  0.50000  0.00000  ), band residuals:
 res:  3.52E-02  2.02E-01  1.97E-01  5.79E-01  2.32E-01  1.87E-01  3.99E-01  1.67E-01
 res:  1.38E-01  2.06E-01
 ene: -4.62E+00 -2.69E+00 -2.66E+00 -2.60E+00 -1.45E-01 -1.02E-01  2.20E-02  7.27E-02
 ene:  2.53E-01  4.21E-01
 res:  1.16E-04  9.95E-04  4.64E-04  4.84E-04  2.35E-04  1.81E-04  2.05E-03  2.01E-02
 res:  1.54E-02  1.82E-01
 ene: -4.62E+00 -2.73E+00 -2.70E+00 -2.63E+00 -1.68E-01 -1.24E-01 -1.06E-01 -1.68E-02
 ene: -1.04E-02  1.77E-01
 vtowfk : number of one-way 3D ffts skipped in vtowfk until now =41
     eigenvalues (hartree) for   10  bands
              after    3 non-SCF iterations with    4 CG line minimizations
 -4.6202E+00 -2.7340E+00 -2.6965E+00 -2.6290E+00 -1.6769E-01 -1.2397E-01
 -1.0613E-01 -1.6780E-02 -1.0443E-02  1.7660E-01
 non-scf iterations; kpt #     2  , k= ( -0.25000  0.00000  0.00000  ), band residuals:
 res:  4.19E-02  2.97E-01  3.73E-02  2.20E-02  2.98E-01  8.90E-02  1.97E-01  4.07E-02
 res:  3.85E-02  3.10E-02
 ene: -4.62E+00 -2.75E+00 -2.68E+00 -2.68E+00 -1.46E-01 -1.14E-01 -8.82E-02 -8.40E-02
 ene: -7.49E-02  1.04E-01
 res:  1.53E-04  4.33E-04  2.71E-05  2.53E-05  7.43E-04  5.72E-07  3.61E-04  9.45E-06
 res:  7.23E-04  1.10E-03
 ene: -4.62E+00 -2.79E+00 -2.69E+00 -2.68E+00 -1.67E-01 -1.16E-01 -1.16E-01 -8.81E-02
[...]
 res:  2.68E-15  6.16E-14
 ene: -3.19E+00 -1.79E+00 -1.78E+00 -1.76E+00  3.85E-01  4.16E-01  4.80E-01  5.55E-01
 ene:  6.10E-01  7.88E-01
 vtowfk : number of one-way 3D ffts skipped in vtowfk until now =430
     eigenvalues (hartree) for   10  bands
              after    2 non-SCF iterations with    4 CG line minimizations
 -3.1877E+00 -1.7855E+00 -1.7751E+00 -1.7555E+00  3.8457E-01  4.1562E-01
  4.7992E-01  5.5463E-01  6.1043E-01  7.8795E-01
 non-scf iterations; kpt #     9  , k= ( -0.12500  0.00000  0.00000  ), band residuals:
 res:  1.99E-14  2.97E-16  2.98E-16  2.76E-15  2.19E-14  1.08E-15  9.90E-16  1.06E-15
 res:  1.07E-15  1.15E-15
 ene: -3.19E+00 -1.78E+00 -1.78E+00 -1.73E+00  2.62E-01  4.55E-01  4.56E-01  4.59E-01
 ene:  5.42E-01  5.43E-01
 vtowfk : number of one-way 3D ffts skipped in vtowfk until now =431
     eigenvalues (hartree) for   10  bands
              after    2 non-SCF iterations with    4 CG line minimizations
 -3.1923E+00 -1.7822E+00 -1.7820E+00 -1.7327E+00  2.6211E-01  4.5523E-01
  4.5558E-01  4.5933E-01  5.4225E-01  5.4274E-01
 non-scf iterations; kpt #    10  , k= ( -0.37500  0.00000  0.00000  ), band residuals:
 res:  1.25E-14  1.73E-14  7.19E-16  7.14E-16  2.16E-14  2.64E-16  2.62E-16  3.11E-14
 res:  2.15E-16  2.28E-16
 ene: -3.19E+00 -1.75E+00 -1.73E+00 -1.73E+00  3.32E-01  4.87E-01  4.88E-01  5.17E-01
 ene:  6.25E-01  6.26E-01
 vtowfk : number of one-way 3D ffts skipped in vtowfk until now =432
     eigenvalues (hartree) for   10  bands
              after    2 non-SCF iterations with    4 CG line minimizations
 -3.1893E+00 -1.7510E+00 -1.7283E+00 -1.7281E+00  3.3246E-01  4.8720E-01
  4.8784E-01  5.1710E-01  6.2517E-01  6.2593E-01
 Total charge density [el/Bohr^3]
      Maximum=    1.1601E+00  at reduced coord.    0.0000    0.1333    0.8667
      Minimum=    2.2240E-02  at reduced coord.    0.5333    0.4667    0.4667
   Integrated=    1.8000E+01
 ETOT  3  -130.19314251572    -2.971E-09 6.156E-14 4.804E-12
 scprqt: <Vxc>= -5.2895984E-01 hartree

 At SCF step    3, etot is converged : 
  for the second time, diff in etot=  2.971E-09 < toldfe=  1.000E-06

 Cartesian components of stress tensor (hartree/bohr^3)
  sigma(1 1)=  4.22034200E-08  sigma(3 2)=  0.00000000E+00
  sigma(2 2)=  4.22034200E-08  sigma(3 1)=  0.00000000E+00
  sigma(3 3)=  4.22034200E-08  sigma(2 1)=  0.00000000E+00

 fftdatar_write: About to write data to: PdGeomOpt_o_DS2_TIM7_DEN with iomode IO_MODE_FORTRAN
 IO operation completed. cpu_time:       0.0 [s], walltime:       0.0 [s]

---OUTPUT-----------------------------------------------------------------------

 Cartesian coordinates (xcart) [bohr]
  0.00000000000000E+00  0.00000000000000E+00  0.00000000000000E+00
 Reduced coordinates (xred)
  0.00000000000000E+00  0.00000000000000E+00  0.00000000000000E+00
 Cartesian forces (fcart) [Ha/bohr]; max,rms= 0.00000E+00 0.00000E+00 (free atoms)
 -0.00000000000000E+00 -0.00000000000000E+00 -0.00000000000000E+00
 Reduced forces (fred)
  0.00000000000000E+00  0.00000000000000E+00  0.00000000000000E+00
 Scale of Primitive Cell (acell) [bohr]
  7.33663660358166E+00  7.33663660358166E+00  7.33663660358166E+00
 Real space primitive translations (rprimd) [bohr]
  0.00000000000000E+00  3.66831830179083E+00  3.66831830179083E+00
  3.66831830179083E+00  0.00000000000000E+00  3.66831830179083E+00
  3.66831830179083E+00  3.66831830179083E+00  0.00000000000000E+00
 Unitary Cell Volume (ucvol) [Bohr^3]=  9.87258845153884E+01
 Angles (23,13,12)= [degrees]
  6.00000000000000E+01  6.00000000000000E+01  6.00000000000000E+01
 Lengths [Bohr]
  5.18778549349403E+00  5.18778549349403E+00  5.18778549349403E+00
 Stress tensor in cartesian coordinates (strten) [Ha/bohr^3]
  4.22034199948351E-08  0.00000000000000E+00  0.00000000000000E+00
  0.00000000000000E+00  4.22034199670795E-08  0.00000000000000E+00
  0.00000000000000E+00  0.00000000000000E+00  4.22034199948351E-08
 Total energy (etotal) [Ha]= -1.30193142515717E+02

 Difference of energy with previous step (new-old):
           Absolute (Ha)= 1.57216E-08
           Relative     = 1.20756E-10

 At Broyd/MD step   7, gradients are converged : 
  max grad (force/stress) = 4.2203E-06 < tolmxf= 5.0000E-05 ha/bohr (free atoms)

 Geometry Optimization Precondition:           0
================================================================================

 ----iterations are completed or convergence reached----

 Mean square residual over all n,k,spin=   1.1560E-14; max=  6.1558E-14
  -0.1250 -0.2500  0.0000    1  2.68076E-14 kpt; spin; max resid(k); each band:
  1.78E-14 7.76E-16 9.11E-16 6.10E-15 2.68E-14 3.14E-15 2.01E-15 1.88E-15
  5.45E-15 2.44E-15
  -0.1250  0.5000  0.0000    1  5.24014E-14 kpt; spin; max resid(k); each band:
  7.30E-15 2.54E-14 3.02E-16 1.72E-15 1.14E-14 2.47E-15 8.49E-16 5.05E-14
  2.20E-16 5.24E-14
  -0.2500 -0.3750  0.0000    1  3.24908E-14 kpt; spin; max resid(k); each band:
  1.38E-14 1.19E-15 6.76E-15 7.39E-15 3.25E-14 7.28E-15 2.02E-14 1.59E-15
  1.08E-14 1.79E-14
  -0.1250 -0.3750  0.1250    1  4.15130E-14 kpt; spin; max resid(k); each band:
  1.27E-14 1.19E-14 1.91E-15 5.05E-15 3.34E-14 1.37E-14 1.07E-14 7.06E-15
  5.22E-15 4.15E-14
  -0.1250  0.2500  0.0000    1  2.98134E-14 kpt; spin; max resid(k); each band:
  1.57E-14 1.30E-15 1.05E-14 7.56E-16 2.98E-14 9.42E-15 7.88E-15 3.07E-16
  9.10E-16 1.12E-14
  -0.2500  0.3750  0.0000    1  5.02979E-14 kpt; spin; max resid(k); each band:
  1.33E-14 1.34E-14 7.18E-15 1.05E-15 1.46E-14 2.64E-14 1.37E-14 5.44E-16
  3.06E-16 5.03E-14
  -0.3750  0.5000  0.0000    1  6.10021E-14 kpt; spin; max resid(k); each band:
  5.95E-15 2.46E-14 9.80E-16 1.69E-15 1.06E-14 9.14E-16 4.84E-14 1.41E-15
  7.02E-16 6.10E-14
  -0.2500  0.5000  0.1250    1  6.15576E-14 kpt; spin; max resid(k); each band:
  9.90E-15 1.71E-14 4.84E-15 1.81E-15 1.32E-14 3.65E-15 3.57E-14 2.65E-15
  2.68E-15 6.16E-14
  -0.1250  0.0000  0.0000    1  2.18692E-14 kpt; spin; max resid(k); each band:
  1.99E-14 2.97E-16 2.98E-16 2.76E-15 2.19E-14 1.08E-15 9.90E-16 1.06E-15
  1.07E-15 1.15E-15
  -0.3750  0.0000  0.0000    1  3.11120E-14 kpt; spin; max resid(k); each band:
  1.25E-14 1.73E-14 7.19E-16 7.14E-16 2.16E-14 2.64E-16 2.62E-16 3.11E-14
  2.15E-16 2.28E-16

 outwf: write wavefunction to file PdGeomOpt_o_DS2_WFK, with iomode -1
 outwf with iomode: -1, cpu_time:     0.00[s], walltime:     0.01 [s]
 prteigrs : about to open file PdGeomOpt_o_DS2_EIG
 Fermi (or HOMO) energy (hartree) =   0.63565   Average Vxc (hartree)=  -0.52896
 Eigenvalues (hartree) for nkpt=  10  k points:
 kpt#   1, nband= 10, wtk=  0.09375, kpt= -0.1250 -0.2500  0.0000 (reduced coord)
  -3.19116   -1.76607   -1.75560   -1.71212    0.31005    0.43983    0.48649    0.50144
   0.55167    0.59305
 kpt#   2, nband= 10, wtk=  0.09375, kpt= -0.1250  0.5000  0.0000 (reduced coord)
  -3.18895   -1.76521   -1.75232   -1.73353    0.34946    0.46419    0.49306    0.51211
   0.62785    0.69407
 kpt#   3, nband= 10, wtk=  0.09375, kpt= -0.2500 -0.3750  0.0000 (reduced coord)
  -3.18945   -1.75524   -1.74932   -1.73003    0.35953    0.40570    0.51240    0.56299
   0.61034    0.61138
 kpt#   4, nband= 10, wtk=  0.18750, kpt= -0.1250 -0.3750  0.1250 (reduced coord)
  -3.18884   -1.76798   -1.74595   -1.72693    0.38019    0.44569    0.46664    0.54143
   0.60079    0.68101
 kpt#   5, nband= 10, wtk=  0.09375, kpt= -0.1250  0.2500  0.0000 (reduced coord)
  -3.18967   -1.75162   -1.72588   -1.72363    0.34512    0.46832    0.48465    0.50315
   0.57921    0.62012
 kpt#   6, nband= 10, wtk=  0.09375, kpt= -0.2500  0.3750  0.0000 (reduced coord)
  -3.18795   -1.77277   -1.75309   -1.72601    0.39505    0.43227    0.48277    0.54131
   0.61308    0.75343
 kpt#   7, nband= 10, wtk=  0.09375, kpt= -0.3750  0.5000  0.0000 (reduced coord)
  -3.18776   -1.78190   -1.76569   -1.74018    0.35125    0.38390    0.55044    0.59192
   0.63565    0.70344
 kpt#   8, nband= 10, wtk=  0.18750, kpt= -0.2500  0.5000  0.1250 (reduced coord)
  -3.18772   -1.78551   -1.77513   -1.75550    0.38457    0.41562    0.47992    0.55463
   0.61043    0.78795
 kpt#   9, nband= 10, wtk=  0.03125, kpt= -0.1250  0.0000  0.0000 (reduced coord)
  -3.19230   -1.78216   -1.78197   -1.73273    0.26211    0.45523    0.45558    0.45933
   0.54225    0.54274
 kpt#  10, nband= 10, wtk=  0.03125, kpt= -0.3750  0.0000  0.0000 (reduced coord)
  -3.18934   -1.75095   -1.72830   -1.72809    0.33246    0.48720    0.48784    0.51710
   0.62517    0.62593
 Total charge density [el/Bohr^3]
      Maximum=    1.1601E+00  at reduced coord.    0.0000    0.1333    0.8667
 Next maximum=    1.1601E+00  at reduced coord.    0.1333    0.0000    0.8667
      Minimum=    2.2240E-02  at reduced coord.    0.5333    0.4667    0.4667
 Next minimum=    2.2240E-02  at reduced coord.    0.4667    0.5333    0.4667
   Integrated=    1.8000E+01

 Cartesian components of stress tensor (hartree/bohr^3)
  sigma(1 1)=  4.22034200E-08  sigma(3 2)=  0.00000000E+00
  sigma(2 2)=  4.22034200E-08  sigma(3 1)=  0.00000000E+00
  sigma(3 3)=  4.22034200E-08  sigma(2 1)=  0.00000000E+00

-Cartesian components of stress tensor (GPa)         [Pressure= -1.2417E-03 GPa]
- sigma(1 1)=  1.24166728E-03  sigma(3 2)=  0.00000000E+00
- sigma(2 2)=  1.24166727E-03  sigma(3 1)=  0.00000000E+00
- sigma(3 3)=  1.24166728E-03  sigma(2 1)=  0.00000000E+00

== END DATASET(S) ==============================================================
================================================================================
  
 -outvars: echo values of variables after computation  --------
            acell1     7.4483963073E+00  7.4483963073E+00  7.4483963073E+00 Bohr
            acell2     7.3366366036E+00  7.3366366036E+00  7.3366366036E+00 Bohr
              amu      1.06420000E+02
           diemac      1.20000000E+01
          dilatmx      1.05000000E+00
             ecut      8.00000000E+00 Hartree
           ecutsm      5.00000000E-01 Hartree
           etotal1    -1.3021550292E+02
           etotal2    -1.3019314252E+02
            fcart1    -0.0000000000E+00 -0.0000000000E+00 -0.0000000000E+00
            fcart2    -0.0000000000E+00 -0.0000000000E+00 -0.0000000000E+00
-          fftalg         112
           getwfk          -1
           ionmov           2
              ixc          11
           jdtset        1    2
              kpt1    -2.50000000E-01  5.00000000E-01  0.00000000E+00
                      -2.50000000E-01  0.00000000E+00  0.00000000E+00
              kpt2    -1.25000000E-01 -2.50000000E-01  0.00000000E+00
                      -1.25000000E-01  5.00000000E-01  0.00000000E+00
                      -2.50000000E-01 -3.75000000E-01  0.00000000E+00
                      -1.25000000E-01 -3.75000000E-01  1.25000000E-01
                      -1.25000000E-01  2.50000000E-01  0.00000000E+00
                      -2.50000000E-01  3.75000000E-01  0.00000000E+00
                      -3.75000000E-01  5.00000000E-01  0.00000000E+00
                      -2.50000000E-01  5.00000000E-01  1.25000000E-01
                      -1.25000000E-01  0.00000000E+00  0.00000000E+00
                      -3.75000000E-01  0.00000000E+00  0.00000000E+00
         kptrlatt1       2   -2    2     -2    2    2     -2   -2    2
         kptrlatt2       4   -4    4     -4    4    4     -4   -4    4
          kptrlen1     1.47000000E+01
          kptrlen2     2.94000000E+01
P           mkmem1          2
P           mkmem2         10
            natom           1
            nband1         10
            nband2         10
           ndtset           2
            ngfft          15      15      15
             nkpt1          2
             nkpt2         10
            nstep          10
             nsym          48
            ntime          10
           ntypat           1
              occ1     2.000000  2.000000  2.000000  2.000000  2.000000  2.000000
                       2.000000  2.000000  2.000000  0.000000
              occ2     2.000000  2.000000  2.000000  2.000000  2.000000  2.000000
                       2.000000  2.000000  2.000000  0.000000
          optcell           1
            rprim      0.0000000000E+00  5.0000000000E-01  5.0000000000E-01
                       5.0000000000E-01  0.0000000000E+00  5.0000000000E-01
                       5.0000000000E-01  5.0000000000E-01  0.0000000000E+00
           shiftk      5.00000000E-01  5.00000000E-01  5.00000000E-01
          spgroup         225
           strten1     1.9551340396E-03  1.9551340396E-03  1.9551340396E-03
                       0.0000000000E+00  0.0000000000E+00  0.0000000000E+00
           strten2     4.2203419995E-08  4.2203419967E-08  4.2203419995E-08
                       0.0000000000E+00  0.0000000000E+00  0.0000000000E+00
           symrel      1  0  0   0  1  0   0  0  1      -1  0  0   0 -1  0   0  0 -1
                       0 -1  1   0 -1  0   1 -1  0       0  1 -1   0  1  0  -1  1  0
                      -1  0  0  -1  0  1  -1  1  0       1  0  0   1  0 -1   1 -1  0
                       0  1 -1   1  0 -1   0  0 -1       0 -1  1  -1  0  1   0  0  1
                      -1  0  0  -1  1  0  -1  0  1       1  0  0   1 -1  0   1  0 -1
                       0 -1  1   1 -1  0   0 -1  0       0  1 -1  -1  1  0   0  1  0
                       1  0  0   0  0  1   0  1  0      -1  0  0   0  0 -1   0 -1  0
                       0  1 -1   0  0 -1   1  0 -1       0 -1  1   0  0  1  -1  0  1
                      -1  0  1  -1  1  0  -1  0  0       1  0 -1   1 -1  0   1  0  0
                       0 -1  0   1 -1  0   0 -1  1       0  1  0  -1  1  0   0  1 -1
                       1  0 -1   0  0 -1   0  1 -1      -1  0  1   0  0  1   0 -1  1
                       0  1  0   0  0  1   1  0  0       0 -1  0   0  0 -1  -1  0  0
                       1  0 -1   0  1 -1   0  0 -1      -1  0  1   0 -1  1   0  0  1
                       0 -1  0   0 -1  1   1 -1  0       0  1  0   0  1 -1  -1  1  0
                      -1  0  1  -1  0  0  -1  1  0       1  0 -1   1  0  0   1 -1  0
                       0  1  0   1  0  0   0  0  1       0 -1  0  -1  0  0   0  0 -1
                       0  0 -1   0  1 -1   1  0 -1       0  0  1   0 -1  1  -1  0  1
                       1 -1  0   0 -1  1   0 -1  0      -1  1  0   0  1 -1   0  1  0
                       0  0  1   1  0  0   0  1  0       0  0 -1  -1  0  0   0 -1  0
                      -1  1  0  -1  0  0  -1  0  1       1 -1  0   1  0  0   1  0 -1
                       0  0  1   0  1  0   1  0  0       0  0 -1   0 -1  0  -1  0  0
                       1 -1  0   0 -1  0   0 -1  1      -1  1  0   0  1  0   0  1 -1
                       0  0 -1   1  0 -1   0  1 -1       0  0  1  -1  0  1   0 -1  1
                      -1  1  0  -1  0  1  -1  0  0       1 -1  0   1  0 -1   1  0  0
           toldfe      1.00000000E-06 Hartree
            typat      1
              wtk1       0.75000    0.25000
              wtk2       0.09375    0.09375    0.09375    0.18750    0.09375    0.09375
                         0.09375    0.18750    0.03125    0.03125
            znucl       46.00000

================================================================================
  

================================================================================

 Suggested references for the acknowledgment of ABINIT usage.

 The users of ABINIT have little formal obligations with respect to the ABINIT group
 (those specified in the GNU General Public License, http://www.gnu.org/copyleft/gpl.txt).
 However, it is common practice in the scientific literature,
 to acknowledge the efforts of people that have made the research possible.
 In this spirit, please find below suggested citations of work written by ABINIT developers,
 corresponding to implementations inside of ABINIT that you have used in the present run.
 Note also that it will be of great value to readers of publications presenting these results,
 to read papers enabling them to understand the theoretical formalism and details
 of the ABINIT implementation.
 For information on why they are suggested, see also https://www.abinit.org/about/?text=acknowledgments.
-
- [1] Recent developments in the ABINIT software package.
- Computer Phys. Comm. 205, 106 (2016).
- X.Gonze, F.Jollet, F.Abreu Araujo, D.Adams, B.Amadon, T.Applencourt,
- C.Audouze, J.-M.Beuken, J.Bieder, A.Bokhanchuk, E.Bousquet, F.Bruneval
- D.Caliste, M.Cote, F.Dahm, F.Da Pieve, M.Delaveau, M.Di Gennaro,
- B.Dorado, C.Espejo, G.Geneste, L.Genovese, A.Gerossier, M.Giantomassi,
- Y.Gillet, D.R.Hamann, L.He, G.Jomard, J.Laflamme Janssen, S.Le Roux,
- A.Levitt, A.Lherbier, F.Liu, I.Lukacevic, A.Martin, C.Martins,
- M.J.T.Oliveira, S.Ponce, Y.Pouillon, T.Rangel, G.-M.Rignanese,
- A.H.Romero, B.Rousseau, O.Rubel, A.A.Shukri, M.Stankovski, M.Torrent,
- M.J.Van Setten, B.Van Troeye, M.J.Verstraete, D.Waroquier, J.Wiktor,
- B.Xue, A.Zhou, J.W.Zwanziger.
- Comment : the fourth generic paper describing the ABINIT project.
- Note that a version of this paper, that is not formatted for Computer Phys. Comm. 
- is available at https://www.abinit.org/about/ABINIT16.pdf .
- The licence allows the authors to put it on the Web.
-
- [2] Optimized norm-conserving Vanderbilt pseudopotentials.
- D.R. Hamann, Phys. Rev. B 88, 085117 (2013).
- Comment: Some pseudopotential generated using the ONCVPSP code were used.
-
- [3] ABINIT : First-principles approach of materials and nanosystem properties.
- Computer Phys. Comm. 180, 2582-2615 (2009).
- X. Gonze, B. Amadon, P.-M. Anglade, J.-M. Beuken, F. Bottin, P. Boulanger, F. Bruneval,
- D. Caliste, R. Caracas, M. Cote, T. Deutsch, L. Genovese, Ph. Ghosez, M. Giantomassi
- S. Goedecker, D.R. Hamann, P. Hermet, F. Jollet, G. Jomard, S. Leroux, M. Mancini, S. Mazevet,
- M.J.T. Oliveira, G. Onida, Y. Pouillon, T. Rangel, G.-M. Rignanese, D. Sangalli, R. Shaltaf,
- M. Torrent, M.J. Verstraete, G. Zerah, J.W. Zwanziger
- Comment : the third generic paper describing the ABINIT project.
- Note that a version of this paper, that is not formatted for Computer Phys. Comm. 
- is available at https://www.abinit.org/about/ABINIT_CPC_v10.pdf .
- The licence allows the authors to put it on the Web.
-
- [4] A brief introduction to the ABINIT software package.
- Z. Kristallogr. 220, 558-562 (2005).
- X. Gonze, G.-M. Rignanese, M. Verstraete, J.-M. Beuken, Y. Pouillon, R. Caracas, F. Jollet,
- M. Torrent, G. Zerah, M. Mikami, Ph. Ghosez, M. Veithen, J.-Y. Raty, V. Olevano, F. Bruneval,
- L. Reining, R. Godby, G. Onida, D.R. Hamann, and D.C. Allan.
- Comment : the second generic paper describing the ABINIT project. Note that this paper
- should be cited especially if you are using the GW part of ABINIT, as several authors
- of this part are not in the list of authors of the first or third paper.
- The .pdf of the latter paper is available at https://www.abinit.org/about/zfk_0505-06_558-562.pdf.
- Note that it should not redistributed (Copyright by Oldenburg Wissenshaftverlag,
- the licence allows the authors to put it on the Web).
-
- And optionally:
-
- [5] First-principles computation of material properties : the ABINIT software project. 
- X. Gonze, J.-M. Beuken, R. Caracas, F. Detraux, M. Fuchs, G.-M. Rignanese, L. Sindic,
- M. Verstraete, G. Zerah, F. Jollet, M. Torrent, A. Roy, M. Mikami, Ph. Ghosez, J.-Y. Raty, D.C. Allan.
- Computational Materials Science 25, 478-492 (2002). http://dx.doi.org/10.1016/S0927-0256(02)00325-7
- Comment : the original paper describing the ABINIT project.
  Asked to delete not existent file: PdGeomOpt_STATUS

 Calculation completed.
.Delivered   5 WARNINGs and   3 COMMENTs to log file.

--- !FinalSummary
program: abinit
version: 8.6.3
start_datetime: Sat Apr 21 08:59:21 2018
end_datetime: Sat Apr 21 08:59:26 2018
overall_cpu_time:           4.5
overall_wall_time:           5.1
exit_requested_by_user: no 
timelimit: 0
pseudos: 
    Pd  : 4144628137bc01fa80f914e5e2c5b797
usepaw: 0
mpi_procs: 1
omp_threads: 1
num_warnings: 5
num_comments: 3
...
