
.Version 8.6.3 of ABINIT 
.(sequential version, prepared for a x86_64_linux_gnu5.4 computer) 

.Copyright (C) 1998-2017 ABINIT group . 
 ABINIT comes with ABSOLUTELY NO WARRANTY.
 It is free software, and you are welcome to redistribute it
 under certain conditions (GNU General Public License,
 see ~abinit/COPYING or http://www.gnu.org/copyleft/gpl.txt).

 ABINIT is a project of the Universite Catholique de Louvain,
 Corning Inc. and other collaborators, see ~abinit/doc/developers/contributors.txt .
 Please read ~abinit/doc/users/acknowledgments.html for suggested
 acknowledgments of the ABINIT effort.
 For more information, see https://www.abinit.org .

.Starting date : Sat 21 Apr 2018.
- ( at 09h12 )
  
- input  file    -> PdGeomOpt.in
- output file    -> PdGeomOpt.out
- root for input  files -> PdGeomOpt_i
- root for output files -> PdGeomOpt_o


 Symmetries : space group Fm -3 m (#225); Bravais cF (face-center cubic)
================================================================================
 Values of the parameters that define the memory need of the present run
     intxc =       0    ionmov =       2      iscf =       7    lmnmax =       6
     lnmax =       6     mgfft =      15  mpssoang =       3    mqgrid =    3001
     natom =       1  nloc_mem =       1    nspden =       1   nspinor =       1
    nsppol =       1      nsym =      48    n1xccc =    2501    ntypat =       1
    occopt =       1   xclevel =       2
-    mband =          10        mffmem =           1         mkmem =           2
       mpw =         126          nfft =        3375          nkpt =           2
================================================================================
P This job should need less than                       1.838 Mbytes of memory.
  Rough estimation (10% accuracy) of disk space for files :
_ WF disk file :      0.040 Mbytes ; DEN or POT disk file :      0.028 Mbytes.
================================================================================

--------------------------------------------------------------------------------
------------- Echo of variables that govern the present computation ------------
--------------------------------------------------------------------------------
-
- outvars: echo of selected default values                                      
-   iomode0 =  0 , fftalg0 =112 , wfoptalg0 =  0
-
- outvars: echo of global parameters not present in the input file              
-  max_nthreads =    0
-
 -outvars: echo values of preprocessed input variables --------
            acell      7.3500000000E+00  7.3500000000E+00  7.3500000000E+00 Bohr
              amu      1.06420000E+02
           diemac      1.20000000E+01
          dilatmx      1.05000000E+00
             ecut      8.00000000E+00 Hartree
           ecutsm      5.00000000E-01 Hartree
-          fftalg         112
           getwfk          -1
           ionmov           2
              ixc          11
              kpt     -2.50000000E-01  5.00000000E-01  0.00000000E+00
                      -2.50000000E-01  0.00000000E+00  0.00000000E+00
         kptrlatt        2   -2    2     -2    2    2     -2   -2    2
          kptrlen      1.47000000E+01
P           mkmem           2
            natom           1
            nband          10
            ngfft          15      15      15
             nkpt           2
            nstep          10
             nsym          48
            ntime          10
           ntypat           1
              occ      2.000000  2.000000  2.000000  2.000000  2.000000  2.000000
                       2.000000  2.000000  2.000000  0.000000
          optcell           1
            rprim      0.0000000000E+00  5.0000000000E-01  5.0000000000E-01
                       5.0000000000E-01  0.0000000000E+00  5.0000000000E-01
                       5.0000000000E-01  5.0000000000E-01  0.0000000000E+00
           shiftk      5.00000000E-01  5.00000000E-01  5.00000000E-01
          spgroup         225
           symrel      1  0  0   0  1  0   0  0  1      -1  0  0   0 -1  0   0  0 -1
                       0 -1  1   0 -1  0   1 -1  0       0  1 -1   0  1  0  -1  1  0
                      -1  0  0  -1  0  1  -1  1  0       1  0  0   1  0 -1   1 -1  0
                       0  1 -1   1  0 -1   0  0 -1       0 -1  1  -1  0  1   0  0  1
                      -1  0  0  -1  1  0  -1  0  1       1  0  0   1 -1  0   1  0 -1
                       0 -1  1   1 -1  0   0 -1  0       0  1 -1  -1  1  0   0  1  0
                       1  0  0   0  0  1   0  1  0      -1  0  0   0  0 -1   0 -1  0
                       0  1 -1   0  0 -1   1  0 -1       0 -1  1   0  0  1  -1  0  1
                      -1  0  1  -1  1  0  -1  0  0       1  0 -1   1 -1  0   1  0  0
                       0 -1  0   1 -1  0   0 -1  1       0  1  0  -1  1  0   0  1 -1
                       1  0 -1   0  0 -1   0  1 -1      -1  0  1   0  0  1   0 -1  1
                       0  1  0   0  0  1   1  0  0       0 -1  0   0  0 -1  -1  0  0
                       1  0 -1   0  1 -1   0  0 -1      -1  0  1   0 -1  1   0  0  1
                       0 -1  0   0 -1  1   1 -1  0       0  1  0   0  1 -1  -1  1  0
                      -1  0  1  -1  0  0  -1  1  0       1  0 -1   1  0  0   1 -1  0
                       0  1  0   1  0  0   0  0  1       0 -1  0  -1  0  0   0  0 -1
                       0  0 -1   0  1 -1   1  0 -1       0  0  1   0 -1  1  -1  0  1
                       1 -1  0   0 -1  1   0 -1  0      -1  1  0   0  1 -1   0  1  0
                       0  0  1   1  0  0   0  1  0       0  0 -1  -1  0  0   0 -1  0
                      -1  1  0  -1  0  0  -1  0  1       1 -1  0   1  0  0   1  0 -1
                       0  0  1   0  1  0   1  0  0       0  0 -1   0 -1  0  -1  0  0
                       1 -1  0   0 -1  0   0 -1  1      -1  1  0   0  1  0   0  1 -1
                       0  0 -1   1  0 -1   0  1 -1       0  0  1  -1  0  1   0 -1  1
                      -1  1  0  -1  0  1  -1  0  0       1 -1  0   1  0 -1   1  0  0
           toldfe      1.00000000E-06 Hartree
            typat      1
              wtk        0.75000    0.25000
            znucl       46.00000

================================================================================

 chkinp: Checking input parameters for consistency.

================================================================================
== DATASET  1 ==================================================================
-   nproc =    1

 Exchange-correlation functional for the present dataset will be:
  GGA: Perdew-Burke-Ernzerhof functional - ixc=11
 Citation for XC functional:
  J.P.Perdew, K.Burke, M.Ernzerhof, PRL 77, 3865 (1996)

 Real(R)+Recip(G) space primitive vectors, cartesian coordinates (Bohr,Bohr^-1):
 R(1)=  0.0000000  3.6750000  3.6750000  G(1)= -0.1360544  0.1360544  0.1360544
 R(2)=  3.6750000  0.0000000  3.6750000  G(2)=  0.1360544 -0.1360544  0.1360544
 R(3)=  3.6750000  3.6750000  0.0000000  G(3)=  0.1360544  0.1360544 -0.1360544
 Unit cell volume ucvol=  9.9266344E+01 bohr^3
 Angles (23,13,12)=  6.00000000E+01  6.00000000E+01  6.00000000E+01 degrees

 getcut: wavevector=  0.0000  0.0000  0.0000  ngfft=  15  15  15
         ecut(hartree)=      8.820   => boxcut(ratio)=   2.02517

--- Pseudopotential description ------------------------------------------------
- pspini: atom type   1  psp file is ../../../Psps_for_tests/Pd.psp8
- pspatm: opening atomic psp file    ../../../Psps_for_tests/Pd.psp8
- Pd    ONCVPSP-3.2.3.1  r_core=   1.41052   1.46191   1.55175
- 46.00000  18.00000    170510                znucl, zion, pspdat
    8   11    2    4       600   0.00000      pspcod,pspxc,lmax,lloc,mmax,r2well
    5.99000000000000    7.00000000000000    0.00000000000000   rchrg,fchrg,qchrg
     nproj     2     2     2
     extension_switch     1
  pspatm : epsatm=   26.09224486
         --- l  ekb(1:nproj) -->
             0    7.845850   -2.282160
             1    3.261104   -0.686948
             2   -1.134855   -0.401224
 pspatm: atomic psp has been read  and splines computed

   4.69660407E+02                                ecore*ucvol(ha*bohr**3)
--------------------------------------------------------------------------------

_setup2: Arith. and geom. avg. npw (full set) are     122.250     122.231

================================================================================

=== [ionmov= 2] Broyden-Fletcher-Goldfard-Shanno method (forces)            
================================================================================

--- Iteration: ( 1/10) Internal Cycle: (1/1)
--------------------------------------------------------------------------------

---SELF-CONSISTENT-FIELD CONVERGENCE--------------------------------------------

     iter   Etot(hartree)      deltaE(h)  residm     vres2
 ETOT  1  -128.68008026099    -1.287E+02 9.247E-02 9.026E+02
 ETOT  2  -129.92746613531    -1.247E+00 1.689E-03 1.709E+02
 ETOT  3  -130.18256770872    -2.551E-01 8.669E-03 1.203E+00
 ETOT  4  -130.18359790405    -1.030E-03 2.231E-05 5.946E-02
 ETOT  5  -130.18363736546    -3.946E-05 1.251E-06 1.411E-04
 ETOT  6  -130.18363716253     2.029E-07 2.289E-09 1.373E-06
 ETOT  7  -130.18363709764     6.489E-08 7.896E-11 1.297E-08

 At SCF step    7, etot is converged : 
  for the second time, diff in etot=  6.489E-08 < toldfe=  1.000E-06

 Cartesian components of stress tensor (hartree/bohr^3)
  sigma(1 1)= -1.35131165E-02  sigma(3 2)=  0.00000000E+00
  sigma(2 2)= -1.35131165E-02  sigma(3 1)=  0.00000000E+00
  sigma(3 3)= -1.35131165E-02  sigma(2 1)=  0.00000000E+00

 Integrated electronic density in atomic spheres:
 ------------------------------------------------
 Atom  Sphere_radius  Integrated_density
    1        2.00000         14.90182125

---OUTPUT-----------------------------------------------------------------------

 Cartesian coordinates (xcart) [bohr]
  0.00000000000000E+00  0.00000000000000E+00  0.00000000000000E+00
 Reduced coordinates (xred)
  0.00000000000000E+00  0.00000000000000E+00  0.00000000000000E+00
 Cartesian forces (fcart) [Ha/bohr]; max,rms= 0.00000E+00 0.00000E+00 (free atoms)
 -0.00000000000000E+00 -0.00000000000000E+00 -0.00000000000000E+00
 Reduced forces (fred)
  0.00000000000000E+00  0.00000000000000E+00  0.00000000000000E+00
 Scale of Primitive Cell (acell) [bohr]
  7.35000000000000E+00  7.35000000000000E+00  7.35000000000000E+00
 Real space primitive translations (rprimd) [bohr]
  0.00000000000000E+00  3.67500000000000E+00  3.67500000000000E+00
  3.67500000000000E+00  0.00000000000000E+00  3.67500000000000E+00
  3.67500000000000E+00  3.67500000000000E+00  0.00000000000000E+00
 Unitary Cell Volume (ucvol) [Bohr^3]=  9.92663437500000E+01
 Angles (23,13,12)= [degrees]
  6.00000000000000E+01  6.00000000000000E+01  6.00000000000000E+01
 Lengths [Bohr]
  5.19723484172112E+00  5.19723484172112E+00  5.19723484172112E+00
 Stress tensor in cartesian coordinates (strten) [Ha/bohr^3]
 -1.35131165128195E-02  0.00000000000000E+00  0.00000000000000E+00
  0.00000000000000E+00 -1.35131165128195E-02  0.00000000000000E+00
  0.00000000000000E+00  0.00000000000000E+00 -1.35131165128195E-02
 Total energy (etotal) [Ha]= -1.30183637097641E+02

--- Iteration: ( 2/10) Internal Cycle: (1/1)
--------------------------------------------------------------------------------

---SELF-CONSISTENT-FIELD CONVERGENCE--------------------------------------------

     iter   Etot(hartree)      deltaE(h)  residm     vres2
 ETOT  1  -130.04897912547    -1.300E+02 5.387E-05 8.411E+01
 ETOT  2  -130.16954283792    -1.206E-01 2.570E-05 1.708E+01
 ETOT  3  -130.19797557265    -2.843E-02 8.191E-04 1.560E-02
 ETOT  4  -130.19798715050    -1.158E-05 2.923E-07 1.839E-04
 ETOT  5  -130.19798710318     4.731E-08 1.724E-08 6.710E-06
 ETOT  6  -130.19798705306     5.012E-08 3.213E-10 6.567E-09

 At SCF step    6, etot is converged : 
  for the second time, diff in etot=  5.012E-08 < toldfe=  1.000E-06

 Cartesian components of stress tensor (hartree/bohr^3)
  sigma(1 1)= -1.95066020E-02  sigma(3 2)=  0.00000000E+00
  sigma(2 2)= -1.95066020E-02  sigma(3 1)=  0.00000000E+00
  sigma(3 3)= -1.95066020E-02  sigma(2 1)=  0.00000000E+00

 Integrated electronic density in atomic spheres:
 ------------------------------------------------
 Atom  Sphere_radius  Integrated_density
    1        2.00000         14.61225556

---OUTPUT-----------------------------------------------------------------------

 Cartesian coordinates (xcart) [bohr]
  0.00000000000000E+00  0.00000000000000E+00  0.00000000000000E+00
 Reduced coordinates (xred)
  0.00000000000000E+00  0.00000000000000E+00  0.00000000000000E+00
 Cartesian forces (fcart) [Ha/bohr]; max,rms= 0.00000E+00 0.00000E+00 (free atoms)
 -0.00000000000000E+00 -0.00000000000000E+00 -0.00000000000000E+00
 Reduced forces (fred)
  0.00000000000000E+00  0.00000000000000E+00  0.00000000000000E+00
 Scale of Primitive Cell (acell) [bohr]
  7.64796421910767E+00  7.64796421910767E+00  7.64796421910767E+00
 Real space primitive translations (rprimd) [bohr]
  0.00000000000000E+00  3.82398210955383E+00  3.82398210955383E+00
  3.82398210955383E+00  0.00000000000000E+00  3.82398210955383E+00
  3.82398210955383E+00  3.82398210955383E+00  0.00000000000000E+00
 Unitary Cell Volume (ucvol) [Bohr^3]=  1.11834950785954E+02
 Angles (23,13,12)= [degrees]
  6.00000000000000E+01  6.00000000000000E+01  6.00000000000000E+01
 Lengths [Bohr]
  5.40792736160311E+00  5.40792736160311E+00  5.40792736160311E+00
 Stress tensor in cartesian coordinates (strten) [Ha/bohr^3]
 -1.95066020056873E-02  0.00000000000000E+00  0.00000000000000E+00
  0.00000000000000E+00 -1.95066020056873E-02  0.00000000000000E+00
  0.00000000000000E+00  0.00000000000000E+00 -1.95066020056873E-02
 Total energy (etotal) [Ha]= -1.30197987053063E+02

 Difference of energy with previous step (new-old):
           Absolute (Ha)=-1.43500E-02
           Relative     =-1.10222E-04

--- Iteration: ( 3/10) Internal Cycle: (1/1)
--------------------------------------------------------------------------------

---SELF-CONSISTENT-FIELD CONVERGENCE--------------------------------------------

     iter   Etot(hartree)      deltaE(h)  residm     vres2
 ETOT  1  -129.77365923484    -1.298E+02 3.077E-04 2.713E+02
 ETOT  2  -130.10813741395    -3.345E-01 7.128E-06 2.568E+01
 ETOT  3  -130.13874647025    -3.061E-02 1.462E-03 9.556E-02
 ETOT  4  -130.13877867012    -3.220E-05 6.536E-07 4.574E-04
 ETOT  5  -130.13877852780     1.423E-07 4.087E-09 9.653E-06
 ETOT  6  -130.13877845665     7.116E-08 2.330E-10 1.408E-08

 At SCF step    6, etot is converged : 
  for the second time, diff in etot=  7.116E-08 < toldfe=  1.000E-06

 Cartesian components of stress tensor (hartree/bohr^3)
  sigma(1 1)= -4.61835891E-02  sigma(3 2)=  0.00000000E+00
  sigma(2 2)= -4.61835891E-02  sigma(3 1)=  0.00000000E+00
  sigma(3 3)= -4.61835891E-02  sigma(2 1)=  0.00000000E+00

 Integrated electronic density in atomic spheres:
 ------------------------------------------------
 Atom  Sphere_radius  Integrated_density
    1        2.00000         15.15381878

---OUTPUT-----------------------------------------------------------------------

 Cartesian coordinates (xcart) [bohr]
  0.00000000000000E+00  0.00000000000000E+00  0.00000000000000E+00
 Reduced coordinates (xred)
  0.00000000000000E+00  0.00000000000000E+00  0.00000000000000E+00
 Cartesian forces (fcart) [Ha/bohr]; max,rms= 0.00000E+00 0.00000E+00 (free atoms)
 -0.00000000000000E+00 -0.00000000000000E+00 -0.00000000000000E+00
 Reduced forces (fred)
  0.00000000000000E+00  0.00000000000000E+00  0.00000000000000E+00
 Scale of Primitive Cell (acell) [bohr]
  6.87424956051063E+00  6.87424956051063E+00  6.87424956051063E+00
 Real space primitive translations (rprimd) [bohr]
  0.00000000000000E+00  3.43712478025531E+00  3.43712478025531E+00
  3.43712478025531E+00  0.00000000000000E+00  3.43712478025531E+00
  3.43712478025531E+00  3.43712478025531E+00  0.00000000000000E+00
 Unitary Cell Volume (ucvol) [Bohr^3]=  8.12111933788178E+01
 Angles (23,13,12)= [degrees]
  6.00000000000000E+01  6.00000000000000E+01  6.00000000000000E+01
 Lengths [Bohr]
  4.86082847980571E+00  4.86082847980571E+00  4.86082847980571E+00
 Stress tensor in cartesian coordinates (strten) [Ha/bohr^3]
 -4.61835890852436E-02  0.00000000000000E+00  0.00000000000000E+00
  0.00000000000000E+00 -4.61835890852436E-02  0.00000000000000E+00
  0.00000000000000E+00  0.00000000000000E+00 -4.61835890852436E-02
 Total energy (etotal) [Ha]= -1.30138778456648E+02

 Difference of energy with previous step (new-old):
           Absolute (Ha)= 5.92086E-02
           Relative     = 4.54862E-04

--- Iteration: ( 4/10) Internal Cycle: (1/1)
--------------------------------------------------------------------------------

---SELF-CONSISTENT-FIELD CONVERGENCE--------------------------------------------

     iter   Etot(hartree)      deltaE(h)  residm     vres2
 ETOT  1  -117.92748933440    -1.179E+02 1.215E-02 5.973E+03
 ETOT  2  -126.35175527119    -8.424E+00 1.824E-01 4.187E+02
 ETOT  3  -127.13720997151    -7.855E-01 1.205E-02 8.854E+00
 ETOT  4  -127.14375528468    -6.545E-03 1.770E-04 1.548E+00
 ETOT  5  -127.14421671365    -4.614E-04 4.794E-06 3.517E-02
 ETOT  6  -127.14424748608    -3.077E-05 3.348E-07 5.883E-03
 ETOT  7  -127.14424707397     4.121E-07 2.614E-08 3.791E-05
 ETOT  8  -127.14424750822    -4.342E-07 1.053E-09 1.942E-07

 At SCF step    8, etot is converged : 
  for the second time, diff in etot=  4.342E-07 < toldfe=  1.000E-06

 Cartesian components of stress tensor (hartree/bohr^3)
  sigma(1 1)=  6.23817281E-02  sigma(3 2)=  0.00000000E+00
  sigma(2 2)=  6.23817281E-02  sigma(3 1)=  0.00000000E+00
  sigma(3 3)=  6.23817281E-02  sigma(2 1)=  0.00000000E+00

 Integrated electronic density in atomic spheres:
 ------------------------------------------------
 Atom  Sphere_radius  Integrated_density
    1        2.00000         14.24721763

---OUTPUT-----------------------------------------------------------------------

 Cartesian coordinates (xcart) [bohr]
  0.00000000000000E+00  0.00000000000000E+00  0.00000000000000E+00
 Reduced coordinates (xred)
  0.00000000000000E+00  0.00000000000000E+00  0.00000000000000E+00
 Cartesian forces (fcart) [Ha/bohr]; max,rms= 0.00000E+00 0.00000E+00 (free atoms)
 -0.00000000000000E+00 -0.00000000000000E+00 -0.00000000000000E+00
 Reduced forces (fred)
  0.00000000000000E+00  0.00000000000000E+00  0.00000000000000E+00
 Scale of Primitive Cell (acell) [bohr]
  8.72365668959375E+00  8.72365668959375E+00  8.72365668959375E+00
 Real space primitive translations (rprimd) [bohr]
  0.00000000000000E+00  4.36182834479688E+00  4.36182834479688E+00
  4.36182834479688E+00  0.00000000000000E+00  4.36182834479688E+00
  4.36182834479688E+00  4.36182834479688E+00  0.00000000000000E+00
 Unitary Cell Volume (ucvol) [Bohr^3]=  1.65972336080545E+02
 Angles (23,13,12)= [degrees]
  6.00000000000000E+01  6.00000000000000E+01  6.00000000000000E+01
 Lengths [Bohr]
  6.16855680195513E+00  6.16855680195513E+00  6.16855680195513E+00
 Stress tensor in cartesian coordinates (strten) [Ha/bohr^3]
  6.23817280935705E-02  0.00000000000000E+00  0.00000000000000E+00
  0.00000000000000E+00  6.23817280935705E-02  0.00000000000000E+00
  0.00000000000000E+00  0.00000000000000E+00  6.23817280935704E-02
 Total energy (etotal) [Ha]= -1.27144247508221E+02

 Difference of energy with previous step (new-old):
           Absolute (Ha)= 2.99453E+00
           Relative     = 2.32781E-02

--- Iteration: ( 5/10) Internal Cycle: (1/1)
--------------------------------------------------------------------------------

---SELF-CONSISTENT-FIELD CONVERGENCE--------------------------------------------

     iter   Etot(hartree)      deltaE(h)  residm     vres2
 ETOT  1  -128.54800623072    -1.285E+02 9.875E-04 1.297E+03
 ETOT  2  -130.04490533125    -1.497E+00 9.770E-04 1.043E+02
 ETOT  3  -130.19086299375    -1.460E-01 5.132E-03 2.646E+00
 ETOT  4  -130.19263581305    -1.773E-03 8.277E-05 1.662E-01
 ETOT  5  -130.19278019082    -1.444E-04 4.739E-06 7.506E-04
 ETOT  6  -130.19277970892     4.819E-07 9.206E-09 2.854E-06
 ETOT  7  -130.19277960980     9.912E-08 1.025E-10 2.106E-08

 At SCF step    7, etot is converged : 
  for the second time, diff in etot=  9.912E-08 < toldfe=  1.000E-06

 Cartesian components of stress tensor (hartree/bohr^3)
  sigma(1 1)= -1.41127260E-02  sigma(3 2)=  0.00000000E+00
  sigma(2 2)= -1.41127260E-02  sigma(3 1)=  0.00000000E+00
  sigma(3 3)= -1.41127260E-02  sigma(2 1)=  0.00000000E+00

 Integrated electronic density in atomic spheres:
 ------------------------------------------------
 Atom  Sphere_radius  Integrated_density
    1        2.00000         14.91688214

---OUTPUT-----------------------------------------------------------------------

 Cartesian coordinates (xcart) [bohr]
  0.00000000000000E+00  0.00000000000000E+00  0.00000000000000E+00
 Reduced coordinates (xred)
  0.00000000000000E+00  0.00000000000000E+00  0.00000000000000E+00
 Cartesian forces (fcart) [Ha/bohr]; max,rms= 0.00000E+00 0.00000E+00 (free atoms)
 -0.00000000000000E+00 -0.00000000000000E+00 -0.00000000000000E+00
 Reduced forces (fred)
  0.00000000000000E+00  0.00000000000000E+00  0.00000000000000E+00
 Scale of Primitive Cell (acell) [bohr]
  7.36604627707437E+00  7.36604627707437E+00  7.36604627707437E+00
 Real space primitive translations (rprimd) [bohr]
  0.00000000000000E+00  3.68302313853719E+00  3.68302313853719E+00
  3.68302313853719E+00  0.00000000000000E+00  3.68302313853719E+00
  3.68302313853719E+00  3.68302313853719E+00  0.00000000000000E+00
 Unitary Cell Volume (ucvol) [Bohr^3]=  9.99179091604300E+01
 Angles (23,13,12)= [degrees]
  6.00000000000000E+01  6.00000000000000E+01  6.00000000000000E+01
 Lengths [Bohr]
  5.20858127305321E+00  5.20858127305321E+00  5.20858127305321E+00
 Stress tensor in cartesian coordinates (strten) [Ha/bohr^3]
 -1.41127259934989E-02  0.00000000000000E+00  0.00000000000000E+00
  0.00000000000000E+00 -1.41127259934989E-02  0.00000000000000E+00
  0.00000000000000E+00  0.00000000000000E+00 -1.41127259934990E-02
 Total energy (etotal) [Ha]= -1.30192779609801E+02

 Difference of energy with previous step (new-old):
           Absolute (Ha)=-3.04853E+00
           Relative     =-2.36929E-02

--- Iteration: ( 6/10) Internal Cycle: (1/1)
--------------------------------------------------------------------------------

---SELF-CONSISTENT-FIELD CONVERGENCE--------------------------------------------

     iter   Etot(hartree)      deltaE(h)  residm     vres2
 ETOT  1  -130.14871163592    -1.301E+02 1.033E-05 2.388E+01
 ETOT  2  -130.18283496323    -3.412E-02 2.074E-06 4.628E+00
 ETOT  3  -130.19021223853    -7.377E-03 2.229E-04 2.769E-03
 ETOT  4  -130.19021389981    -1.661E-06 1.486E-07 7.217E-05
 ETOT  5  -130.19021400008    -1.003E-07 7.023E-09 1.524E-06
 ETOT  6  -130.19021400806    -7.979E-09 9.265E-11 2.073E-09

 At SCF step    6, etot is converged : 
  for the second time, diff in etot=  7.979E-09 < toldfe=  1.000E-06

 Cartesian components of stress tensor (hartree/bohr^3)
  sigma(1 1)=  1.00143294E-02  sigma(3 2)=  0.00000000E+00
  sigma(2 2)=  1.00143294E-02  sigma(3 1)=  0.00000000E+00
  sigma(3 3)=  1.00143294E-02  sigma(2 1)=  0.00000000E+00

 Integrated electronic density in atomic spheres:
 ------------------------------------------------
 Atom  Sphere_radius  Integrated_density
    1        2.00000         14.78939838

---OUTPUT-----------------------------------------------------------------------

 Cartesian coordinates (xcart) [bohr]
  0.00000000000000E+00  0.00000000000000E+00  0.00000000000000E+00
 Reduced coordinates (xred)
  0.00000000000000E+00  0.00000000000000E+00  0.00000000000000E+00
 Cartesian forces (fcart) [Ha/bohr]; max,rms= 0.00000E+00 0.00000E+00 (free atoms)
 -0.00000000000000E+00 -0.00000000000000E+00 -0.00000000000000E+00
 Reduced forces (fred)
  0.00000000000000E+00  0.00000000000000E+00  0.00000000000000E+00
 Scale of Primitive Cell (acell) [bohr]
  7.52878219894602E+00  7.52878219894602E+00  7.52878219894602E+00
 Real space primitive translations (rprimd) [bohr]
  0.00000000000000E+00  3.76439109947301E+00  3.76439109947301E+00
  3.76439109947301E+00  0.00000000000000E+00  3.76439109947301E+00
  3.76439109947301E+00  3.76439109947301E+00  0.00000000000000E+00
 Unitary Cell Volume (ucvol) [Bohr^3]=  1.06687664813177E+02
 Angles (23,13,12)= [degrees]
  6.00000000000000E+01  6.00000000000000E+01  6.00000000000000E+01
 Lengths [Bohr]
  5.32365294695130E+00  5.32365294695130E+00  5.32365294695130E+00
 Stress tensor in cartesian coordinates (strten) [Ha/bohr^3]
  1.00143293599737E-02  0.00000000000000E+00  0.00000000000000E+00
  0.00000000000000E+00  1.00143293599737E-02  0.00000000000000E+00
  0.00000000000000E+00  0.00000000000000E+00  1.00143293599737E-02
 Total energy (etotal) [Ha]= -1.30190214008055E+02

 Difference of energy with previous step (new-old):
           Absolute (Ha)= 2.56560E-03
           Relative     = 1.97064E-05

--- Iteration: ( 7/10) Internal Cycle: (1/1)
--------------------------------------------------------------------------------

---SELF-CONSISTENT-FIELD CONVERGENCE--------------------------------------------

     iter   Etot(hartree)      deltaE(h)  residm     vres2
 ETOT  1  -130.20639383619    -1.302E+02 4.791E-07 4.478E+00
 ETOT  2  -130.21276085097    -6.367E-03 1.556E-07 8.433E-01
 ETOT  3  -130.21408055472    -1.320E-03 3.940E-05 6.328E-04
 ETOT  4  -130.21408162801    -1.073E-06 1.707E-08 1.725E-05
 ETOT  5  -130.21408157134     5.667E-08 9.742E-10 1.992E-07
 ETOT  6  -130.21408155516     1.618E-08 1.353E-11 7.135E-10

 At SCF step    6, etot is converged : 
  for the second time, diff in etot=  1.618E-08 < toldfe=  1.000E-06

 Cartesian components of stress tensor (hartree/bohr^3)
  sigma(1 1)=  4.62460467E-03  sigma(3 2)=  0.00000000E+00
  sigma(2 2)=  4.62460467E-03  sigma(3 1)=  0.00000000E+00
  sigma(3 3)=  4.62460467E-03  sigma(2 1)=  0.00000000E+00

 Integrated electronic density in atomic spheres:
 ------------------------------------------------
 Atom  Sphere_radius  Integrated_density
    1        2.00000         14.74291249

---OUTPUT-----------------------------------------------------------------------

 Cartesian coordinates (xcart) [bohr]
  0.00000000000000E+00  0.00000000000000E+00  0.00000000000000E+00
 Reduced coordinates (xred)
  0.00000000000000E+00  0.00000000000000E+00  0.00000000000000E+00
 Cartesian forces (fcart) [Ha/bohr]; max,rms= 0.00000E+00 0.00000E+00 (free atoms)
 -0.00000000000000E+00 -0.00000000000000E+00 -0.00000000000000E+00
 Reduced forces (fred)
  0.00000000000000E+00  0.00000000000000E+00  0.00000000000000E+00
 Scale of Primitive Cell (acell) [bohr]
  7.45863228047979E+00  7.45863228047979E+00  7.45863228047979E+00
 Real space primitive translations (rprimd) [bohr]
  0.00000000000000E+00  3.72931614023989E+00  3.72931614023989E+00
  3.72931614023989E+00  0.00000000000000E+00  3.72931614023989E+00
  3.72931614023989E+00  3.72931614023989E+00  0.00000000000000E+00
 Unitary Cell Volume (ucvol) [Bohr^3]=  1.03733157630946E+02
 Angles (23,13,12)= [degrees]
  6.00000000000000E+01  6.00000000000000E+01  6.00000000000000E+01
 Lengths [Bohr]
  5.27404946390414E+00  5.27404946390414E+00  5.27404946390414E+00
 Stress tensor in cartesian coordinates (strten) [Ha/bohr^3]
  4.62460466526395E-03  0.00000000000000E+00  0.00000000000000E+00
  0.00000000000000E+00  4.62460466526395E-03  0.00000000000000E+00
  0.00000000000000E+00  0.00000000000000E+00  4.62460466526393E-03
 Total energy (etotal) [Ha]= -1.30214081555165E+02

 Difference of energy with previous step (new-old):
           Absolute (Ha)=-2.38675E-02
           Relative     =-1.83311E-04

--- Iteration: ( 8/10) Internal Cycle: (1/1)
--------------------------------------------------------------------------------

---SELF-CONSISTENT-FIELD CONVERGENCE--------------------------------------------

     iter   Etot(hartree)      deltaE(h)  residm     vres2
 ETOT  1  -130.20431876691    -1.302E+02 3.201E-03 2.633E+00
 ETOT  2  -130.20806394379    -3.745E-03 3.137E-07 4.928E-01
 ETOT  3  -130.20882569102    -7.617E-04 2.359E-05 3.643E-04
 ETOT  4  -130.20882619309    -5.021E-07 1.066E-08 1.093E-05
 ETOT  5  -130.20882612011     7.298E-08 5.250E-10 8.549E-08

 At SCF step    5, etot is converged : 
  for the second time, diff in etot=  7.298E-08 < toldfe=  1.000E-06

 Cartesian components of stress tensor (hartree/bohr^3)
  sigma(1 1)= -6.42037835E-03  sigma(3 2)=  0.00000000E+00
  sigma(2 2)= -6.42037835E-03  sigma(3 1)=  0.00000000E+00
  sigma(3 3)= -6.42037835E-03  sigma(2 1)=  0.00000000E+00

 Integrated electronic density in atomic spheres:
 ------------------------------------------------
 Atom  Sphere_radius  Integrated_density
    1        2.00000         14.68961655

---OUTPUT-----------------------------------------------------------------------

 Cartesian coordinates (xcart) [bohr]
  0.00000000000000E+00  0.00000000000000E+00  0.00000000000000E+00
 Reduced coordinates (xred)
  0.00000000000000E+00  0.00000000000000E+00  0.00000000000000E+00
 Cartesian forces (fcart) [Ha/bohr]; max,rms= 0.00000E+00 0.00000E+00 (free atoms)
 -0.00000000000000E+00 -0.00000000000000E+00 -0.00000000000000E+00
 Reduced forces (fred)
  0.00000000000000E+00  0.00000000000000E+00  0.00000000000000E+00
 Scale of Primitive Cell (acell) [bohr]
  7.40146603363059E+00  7.40146603363059E+00  7.40146603363059E+00
 Real space primitive translations (rprimd) [bohr]
  0.00000000000000E+00  3.70073301681530E+00  3.70073301681530E+00
  3.70073301681530E+00  0.00000000000000E+00  3.70073301681530E+00
  3.70073301681530E+00  3.70073301681530E+00  0.00000000000000E+00
 Unitary Cell Volume (ucvol) [Bohr^3]=  1.01366221930359E+02
 Angles (23,13,12)= [degrees]
  6.00000000000000E+01  6.00000000000000E+01  6.00000000000000E+01
 Lengths [Bohr]
  5.23362682310209E+00  5.23362682310209E+00  5.23362682310209E+00
 Stress tensor in cartesian coordinates (strten) [Ha/bohr^3]
 -6.42037834553731E-03  0.00000000000000E+00  0.00000000000000E+00
  0.00000000000000E+00 -6.42037834553731E-03  0.00000000000000E+00
  0.00000000000000E+00  0.00000000000000E+00 -6.42037834553730E-03
 Total energy (etotal) [Ha]= -1.30208826120110E+02

 Difference of energy with previous step (new-old):
           Absolute (Ha)= 5.25544E-03
           Relative     = 4.03608E-05

--- Iteration: ( 9/10) Internal Cycle: (1/1)
--------------------------------------------------------------------------------

---SELF-CONSISTENT-FIELD CONVERGENCE--------------------------------------------

     iter   Etot(hartree)      deltaE(h)  residm     vres2
 ETOT  1  -130.21402208932    -1.302E+02 5.350E-07 8.709E-01
 ETOT  2  -130.21525651276    -1.234E-03 1.947E-08 1.659E-01
 ETOT  3  -130.21551418357    -2.577E-04 8.013E-06 9.398E-05
 ETOT  4  -130.21551412917     5.440E-08 4.030E-09 3.631E-06
 ETOT  5  -130.21551416959    -4.042E-08 2.131E-10 1.284E-08

 At SCF step    5, etot is converged : 
  for the second time, diff in etot=  4.042E-08 < toldfe=  1.000E-06

 Cartesian components of stress tensor (hartree/bohr^3)
  sigma(1 1)= -1.89289437E-03  sigma(3 2)=  0.00000000E+00
  sigma(2 2)= -1.89289437E-03  sigma(3 1)=  0.00000000E+00
  sigma(3 3)= -1.89289437E-03  sigma(2 1)=  0.00000000E+00

 Integrated electronic density in atomic spheres:
 ------------------------------------------------
 Atom  Sphere_radius  Integrated_density
    1        2.00000         14.72104928

---OUTPUT-----------------------------------------------------------------------

 Cartesian coordinates (xcart) [bohr]
  0.00000000000000E+00  0.00000000000000E+00  0.00000000000000E+00
 Reduced coordinates (xred)
  0.00000000000000E+00  0.00000000000000E+00  0.00000000000000E+00
 Cartesian forces (fcart) [Ha/bohr]; max,rms= 0.00000E+00 0.00000E+00 (free atoms)
 -0.00000000000000E+00 -0.00000000000000E+00 -0.00000000000000E+00
 Reduced forces (fred)
  0.00000000000000E+00  0.00000000000000E+00  0.00000000000000E+00
 Scale of Primitive Cell (acell) [bohr]
  7.43437466361739E+00  7.43437466361739E+00  7.43437466361739E+00
 Real space primitive translations (rprimd) [bohr]
  0.00000000000000E+00  3.71718733180870E+00  3.71718733180870E+00
  3.71718733180870E+00  0.00000000000000E+00  3.71718733180870E+00
  3.71718733180870E+00  3.71718733180870E+00  0.00000000000000E+00
 Unitary Cell Volume (ucvol) [Bohr^3]=  1.02724335566311E+02
 Angles (23,13,12)= [degrees]
  6.00000000000000E+01  6.00000000000000E+01  6.00000000000000E+01
 Lengths [Bohr]
  5.25689673852532E+00  5.25689673852532E+00  5.25689673852532E+00
 Stress tensor in cartesian coordinates (strten) [Ha/bohr^3]
 -1.89289437006136E-03  0.00000000000000E+00  0.00000000000000E+00
  0.00000000000000E+00 -1.89289437006135E-03  0.00000000000000E+00
  0.00000000000000E+00  0.00000000000000E+00 -1.89289437006135E-03
 Total energy (etotal) [Ha]= -1.30215514169592E+02

 Difference of energy with previous step (new-old):
           Absolute (Ha)=-6.68805E-03
           Relative     =-5.13627E-05

--- Iteration: (10/10) Internal Cycle: (1/1)
--------------------------------------------------------------------------------

---SELF-CONSISTENT-FIELD CONVERGENCE--------------------------------------------

     iter   Etot(hartree)      deltaE(h)  residm     vres2
 ETOT  1  -130.21521301479    -1.302E+02 5.663E-08 1.696E-01
 ETOT  2  -130.21545299346    -2.400E-04 3.921E-09 3.241E-02
 ETOT  3  -130.21550296839    -4.997E-05 1.548E-06 1.808E-05
 ETOT  4  -130.21550290399     6.439E-08 8.019E-10 6.397E-07
 ETOT  5  -130.21550291945    -1.545E-08 4.218E-11 2.341E-09

 At SCF step    5, etot is converged : 
  for the second time, diff in etot=  1.545E-08 < toldfe=  1.000E-06

 Cartesian components of stress tensor (hartree/bohr^3)
  sigma(1 1)=  1.95513404E-03  sigma(3 2)=  0.00000000E+00
  sigma(2 2)=  1.95513404E-03  sigma(3 1)=  0.00000000E+00
  sigma(3 3)=  1.95513404E-03  sigma(2 1)=  0.00000000E+00

 Integrated electronic density in atomic spheres:
 ------------------------------------------------
 Atom  Sphere_radius  Integrated_density
    1        2.00000         14.73380311

---OUTPUT-----------------------------------------------------------------------

 Cartesian coordinates (xcart) [bohr]
  0.00000000000000E+00  0.00000000000000E+00  0.00000000000000E+00
 Reduced coordinates (xred)
  0.00000000000000E+00  0.00000000000000E+00  0.00000000000000E+00
 Cartesian forces (fcart) [Ha/bohr]; max,rms= 0.00000E+00 0.00000E+00 (free atoms)
 -0.00000000000000E+00 -0.00000000000000E+00 -0.00000000000000E+00
 Reduced forces (fred)
  0.00000000000000E+00  0.00000000000000E+00  0.00000000000000E+00
 Scale of Primitive Cell (acell) [bohr]
  7.44839630726466E+00  7.44839630726466E+00  7.44839630726466E+00
 Real space primitive translations (rprimd) [bohr]
  0.00000000000000E+00  3.72419815363233E+00  3.72419815363233E+00
  3.72419815363233E+00  0.00000000000000E+00  3.72419815363233E+00
  3.72419815363233E+00  3.72419815363233E+00  0.00000000000000E+00
 Unitary Cell Volume (ucvol) [Bohr^3]=  1.03306663902039E+02
 Angles (23,13,12)= [degrees]
  6.00000000000000E+01  6.00000000000000E+01  6.00000000000000E+01
 Lengths [Bohr]
  5.26681153783168E+00  5.26681153783168E+00  5.26681153783168E+00
 Stress tensor in cartesian coordinates (strten) [Ha/bohr^3]
  1.95513403964197E-03  0.00000000000000E+00  0.00000000000000E+00
  0.00000000000000E+00  1.95513403964195E-03  0.00000000000000E+00
  0.00000000000000E+00  0.00000000000000E+00  1.95513403964194E-03
 Total energy (etotal) [Ha]= -1.30215502919447E+02

 Difference of energy with previous step (new-old):
           Absolute (Ha)= 1.12501E-05
           Relative     = 8.63964E-08

 fconv : WARNING -
  ntime=   10 was not enough Broyd/MD steps to converge gradients: 
  max grad (force/stress) = 1.9551E-01 > tolmxf= 5.0000E-05 ha/bohr (free atoms)

================================================================================

 ----iterations are completed or convergence reached----

 Mean square residual over all n,k,spin=   5.4739E-12; max=  4.2181E-11
 reduced coordinates (array xred) for    1 atoms
       0.000000000000      0.000000000000      0.000000000000
 rms dE/dt=  0.0000E+00; max dE/dt=  0.0000E+00; dE/dt below (all hartree)
    1       0.000000000000      0.000000000000      0.000000000000

 cartesian coordinates (angstrom) at end:
    1      0.00000000000000     0.00000000000000     0.00000000000000

 cartesian forces (hartree/bohr) at end:
    1     -0.00000000000000    -0.00000000000000    -0.00000000000000
 frms,max,avg= 0.0000000E+00 0.0000000E+00   0.000E+00  0.000E+00  0.000E+00 h/b

 cartesian forces (eV/Angstrom) at end:
    1     -0.00000000000000    -0.00000000000000    -0.00000000000000
 frms,max,avg= 0.0000000E+00 0.0000000E+00   0.000E+00  0.000E+00  0.000E+00 e/A
 length scales=  7.448396307265  7.448396307265  7.448396307265 bohr
              =  3.941521566350  3.941521566350  3.941521566350 angstroms
 prteigrs : about to open file PdGeomOpt_o_EIG
 Fermi (or HOMO) energy (hartree) =   0.59483   Average Vxc (hartree)=  -0.51683
 Eigenvalues (hartree) for nkpt=   2  k points:
 kpt#   1, nband= 10, wtk=  0.75000, kpt= -0.2500  0.5000  0.0000 (reduced coord)
  -3.21173   -1.78465   -1.78347   -1.77817    0.34301    0.39813    0.45892    0.51827
   0.59483    0.68534
 prteigrs : prtvol=0 or 1, do not print more k-points.


--------------------------------------------------------------------------------
 Components of total free energy (in Hartree) :

    Kinetic energy  =  3.70064926632832E+01
    Hartree energy  =  1.85586306004453E+01
    XC energy       = -1.98730914842058E+01
    Ewald energy    = -9.97191375654934E+01
    PspCore energy  =  4.54627407081450E+00
    Loc. psp. energy= -7.43628780911677E+01
    NL   psp  energy=  3.62820688687714E+00
    >>>>>>>>> Etotal= -1.30215502919447E+02

 Other information on the energy :
    Total energy(eV)= -3.54334403446402E+03 ; Band energy (Ha)=  -1.2525252725E+01
--------------------------------------------------------------------------------

 Cartesian components of stress tensor (hartree/bohr^3)
  sigma(1 1)=  1.95513404E-03  sigma(3 2)=  0.00000000E+00
  sigma(2 2)=  1.95513404E-03  sigma(3 1)=  0.00000000E+00
  sigma(3 3)=  1.95513404E-03  sigma(2 1)=  0.00000000E+00

-Cartesian components of stress tensor (GPa)         [Pressure= -5.7522E+01 GPa]
- sigma(1 1)=  5.75220197E+01  sigma(3 2)=  0.00000000E+00
- sigma(2 2)=  5.75220197E+01  sigma(3 1)=  0.00000000E+00
- sigma(3 3)=  5.75220197E+01  sigma(2 1)=  0.00000000E+00

== END DATASET(S) ==============================================================
================================================================================
  
 -outvars: echo values of variables after computation  --------
            acell      7.4483963073E+00  7.4483963073E+00  7.4483963073E+00 Bohr
              amu      1.06420000E+02
           diemac      1.20000000E+01
          dilatmx      1.05000000E+00
             ecut      8.00000000E+00 Hartree
           ecutsm      5.00000000E-01 Hartree
           etotal     -1.3021550292E+02
            fcart     -0.0000000000E+00 -0.0000000000E+00 -0.0000000000E+00
-          fftalg         112
           getwfk          -1
           ionmov           2
              ixc          11
              kpt     -2.50000000E-01  5.00000000E-01  0.00000000E+00
                      -2.50000000E-01  0.00000000E+00  0.00000000E+00
         kptrlatt        2   -2    2     -2    2    2     -2   -2    2
          kptrlen      1.47000000E+01
P           mkmem           2
            natom           1
            nband          10
            ngfft          15      15      15
             nkpt           2
            nstep          10
             nsym          48
            ntime          10
           ntypat           1
              occ      2.000000  2.000000  2.000000  2.000000  2.000000  2.000000
                       2.000000  2.000000  2.000000  0.000000
          optcell           1
            rprim      0.0000000000E+00  5.0000000000E-01  5.0000000000E-01
                       5.0000000000E-01  0.0000000000E+00  5.0000000000E-01
                       5.0000000000E-01  5.0000000000E-01  0.0000000000E+00
           shiftk      5.00000000E-01  5.00000000E-01  5.00000000E-01
          spgroup         225
           strten      1.9551340396E-03  1.9551340396E-03  1.9551340396E-03
                       0.0000000000E+00  0.0000000000E+00  0.0000000000E+00
           symrel      1  0  0   0  1  0   0  0  1      -1  0  0   0 -1  0   0  0 -1
                       0 -1  1   0 -1  0   1 -1  0       0  1 -1   0  1  0  -1  1  0
                      -1  0  0  -1  0  1  -1  1  0       1  0  0   1  0 -1   1 -1  0
                       0  1 -1   1  0 -1   0  0 -1       0 -1  1  -1  0  1   0  0  1
                      -1  0  0  -1  1  0  -1  0  1       1  0  0   1 -1  0   1  0 -1
                       0 -1  1   1 -1  0   0 -1  0       0  1 -1  -1  1  0   0  1  0
                       1  0  0   0  0  1   0  1  0      -1  0  0   0  0 -1   0 -1  0
                       0  1 -1   0  0 -1   1  0 -1       0 -1  1   0  0  1  -1  0  1
                      -1  0  1  -1  1  0  -1  0  0       1  0 -1   1 -1  0   1  0  0
                       0 -1  0   1 -1  0   0 -1  1       0  1  0  -1  1  0   0  1 -1
                       1  0 -1   0  0 -1   0  1 -1      -1  0  1   0  0  1   0 -1  1
                       0  1  0   0  0  1   1  0  0       0 -1  0   0  0 -1  -1  0  0
                       1  0 -1   0  1 -1   0  0 -1      -1  0  1   0 -1  1   0  0  1
                       0 -1  0   0 -1  1   1 -1  0       0  1  0   0  1 -1  -1  1  0
                      -1  0  1  -1  0  0  -1  1  0       1  0 -1   1  0  0   1 -1  0
                       0  1  0   1  0  0   0  0  1       0 -1  0  -1  0  0   0  0 -1
                       0  0 -1   0  1 -1   1  0 -1       0  0  1   0 -1  1  -1  0  1
                       1 -1  0   0 -1  1   0 -1  0      -1  1  0   0  1 -1   0  1  0
                       0  0  1   1  0  0   0  1  0       0  0 -1  -1  0  0   0 -1  0
                      -1  1  0  -1  0  0  -1  0  1       1 -1  0   1  0  0   1  0 -1
                       0  0  1   0  1  0   1  0  0       0  0 -1   0 -1  0  -1  0  0
                       1 -1  0   0 -1  0   0 -1  1      -1  1  0   0  1  0   0  1 -1
                       0  0 -1   1  0 -1   0  1 -1       0  0  1  -1  0  1   0 -1  1
                      -1  1  0  -1  0  1  -1  0  0       1 -1  0   1  0 -1   1  0  0
           toldfe      1.00000000E-06 Hartree
            typat      1
              wtk        0.75000    0.25000
            znucl       46.00000

================================================================================

- Total cpu        time (s,m,h):          1.6        0.03      0.000
- Total wall clock time (s,m,h):          1.9        0.03      0.001
-
- For major independent code sections, cpu and wall times (sec),
-  as well as % of the time and number of calls for node 0-
-<BEGIN_TIMER mpi_nprocs = 1, omp_nthreads = 1, mpi_rank = 0>
- cpu_time =            1.6, wall_time =            1.9
-
- routine                        cpu     %       wall     %      number of calls  Gflops    Speedup Efficacity
-                                                                  (-1=no count)
- pspini                         0.359  21.9      0.353  18.5              1      -1.00        1.02       1.02
- fourwf%(pot)                   0.312  19.0      0.374  19.6           7354      -1.00        0.84       0.84
- timing timab                   0.125   7.6      0.127   6.6              8      -1.00        0.98       0.98
- xc:pot/=fourdp                 0.109   6.7      0.063   3.3             71      -1.00        1.74       1.74
- vtowfk(ssdiag)                 0.109   6.7      0.064   3.4             -1      -1.00        1.71       1.71
- getghc-other                   0.094   5.7      0.064   3.4             -1      -1.00        1.46       1.46
- nonlop(apply)                  0.078   4.8      0.123   6.4           7354      -1.00        0.64       0.64
- projbd                         0.062   3.8      0.077   4.0          11468      -1.00        0.81       0.81
- fourdp                         0.031   1.9      0.025   1.3            883      -1.00        1.25       1.25
- mkcore                         0.016   1.0      0.011   0.6             30      -1.00        1.42       1.42
- abinit(2)                      0.016   1.0      0.029   1.5              1      -1.00        0.54       0.54
- forces                         0.016   1.0      0.011   0.6             10      -1.00        1.42       1.42
- others (101)                   0.062   3.8      0.101   5.3             -1      -1.00        0.62       0.62
-<END_TIMER>
-
- subtotal                       1.391  84.8      1.422  74.5                                  0.98       0.98

- For major independent code sections, cpu and wall times (sec),
- as well as % of the total time and number of calls 

-<BEGIN_TIMER mpi_nprocs = 1, omp_nthreads = 1, mpi_rank = world>
- cpu_time =           1.6, wall_time =           1.9
-
- routine                         cpu     %       wall     %      number of calls Gflops    Speedup Efficacity
-                                                                  (-1=no count)
- pspini                         0.359  21.9      0.353  18.5              1      -1.00        1.02       1.02
- fourwf%(pot)                   0.312  19.0      0.374  19.6           7354      -1.00        0.84       0.84
- timing timab                   0.125   7.6      0.127   6.6              8      -1.00        0.98       0.98
- xc:pot/=fourdp                 0.109   6.7      0.063   3.3             71      -1.00        1.74       1.74
- vtowfk(ssdiag)                 0.109   6.7      0.064   3.4             -1      -1.00        1.71       1.71
- getghc-other                   0.094   5.7      0.064   3.4             -1      -1.00        1.46       1.46
- nonlop(apply)                  0.078   4.8      0.123   6.4           7354      -1.00        0.64       0.64
- projbd                         0.062   3.8      0.077   4.0          11468      -1.00        0.81       0.81
- fourdp                         0.031   1.9      0.025   1.3            883      -1.00        1.25       1.25
- mkcore                         0.016   1.0      0.011   0.6             30      -1.00        1.42       1.42
- abinit(2)                      0.016   1.0      0.029   1.5              1      -1.00        0.54       0.54
- forces                         0.016   1.0      0.011   0.6             10      -1.00        1.42       1.42
- others (101)                   0.062   3.8      0.101   5.3             -1      -1.00        0.62       0.62
-<END_TIMER>

- subtotal                       1.391  84.8      1.422  74.5                                  0.98       0.98

================================================================================

 Suggested references for the acknowledgment of ABINIT usage.

 The users of ABINIT have little formal obligations with respect to the ABINIT group
 (those specified in the GNU General Public License, http://www.gnu.org/copyleft/gpl.txt).
 However, it is common practice in the scientific literature,
 to acknowledge the efforts of people that have made the research possible.
 In this spirit, please find below suggested citations of work written by ABINIT developers,
 corresponding to implementations inside of ABINIT that you have used in the present run.
 Note also that it will be of great value to readers of publications presenting these results,
 to read papers enabling them to understand the theoretical formalism and details
 of the ABINIT implementation.
 For information on why they are suggested, see also https://www.abinit.org/about/?text=acknowledgments.
-
- [1] Recent developments in the ABINIT software package.
- Computer Phys. Comm. 205, 106 (2016).
- X.Gonze, F.Jollet, F.Abreu Araujo, D.Adams, B.Amadon, T.Applencourt,
- C.Audouze, J.-M.Beuken, J.Bieder, A.Bokhanchuk, E.Bousquet, F.Bruneval
- D.Caliste, M.Cote, F.Dahm, F.Da Pieve, M.Delaveau, M.Di Gennaro,
- B.Dorado, C.Espejo, G.Geneste, L.Genovese, A.Gerossier, M.Giantomassi,
- Y.Gillet, D.R.Hamann, L.He, G.Jomard, J.Laflamme Janssen, S.Le Roux,
- A.Levitt, A.Lherbier, F.Liu, I.Lukacevic, A.Martin, C.Martins,
- M.J.T.Oliveira, S.Ponce, Y.Pouillon, T.Rangel, G.-M.Rignanese,
- A.H.Romero, B.Rousseau, O.Rubel, A.A.Shukri, M.Stankovski, M.Torrent,
- M.J.Van Setten, B.Van Troeye, M.J.Verstraete, D.Waroquier, J.Wiktor,
- B.Xue, A.Zhou, J.W.Zwanziger.
- Comment : the fourth generic paper describing the ABINIT project.
- Note that a version of this paper, that is not formatted for Computer Phys. Comm. 
- is available at https://www.abinit.org/about/ABINIT16.pdf .
- The licence allows the authors to put it on the Web.
-
- [2] Optimized norm-conserving Vanderbilt pseudopotentials.
- D.R. Hamann, Phys. Rev. B 88, 085117 (2013).
- Comment: Some pseudopotential generated using the ONCVPSP code were used.
-
- [3] ABINIT : First-principles approach of materials and nanosystem properties.
- Computer Phys. Comm. 180, 2582-2615 (2009).
- X. Gonze, B. Amadon, P.-M. Anglade, J.-M. Beuken, F. Bottin, P. Boulanger, F. Bruneval,
- D. Caliste, R. Caracas, M. Cote, T. Deutsch, L. Genovese, Ph. Ghosez, M. Giantomassi
- S. Goedecker, D.R. Hamann, P. Hermet, F. Jollet, G. Jomard, S. Leroux, M. Mancini, S. Mazevet,
- M.J.T. Oliveira, G. Onida, Y. Pouillon, T. Rangel, G.-M. Rignanese, D. Sangalli, R. Shaltaf,
- M. Torrent, M.J. Verstraete, G. Zerah, J.W. Zwanziger
- Comment : the third generic paper describing the ABINIT project.
- Note that a version of this paper, that is not formatted for Computer Phys. Comm. 
- is available at https://www.abinit.org/about/ABINIT_CPC_v10.pdf .
- The licence allows the authors to put it on the Web.
-
- [4] A brief introduction to the ABINIT software package.
- Z. Kristallogr. 220, 558-562 (2005).
- X. Gonze, G.-M. Rignanese, M. Verstraete, J.-M. Beuken, Y. Pouillon, R. Caracas, F. Jollet,
- M. Torrent, G. Zerah, M. Mikami, Ph. Ghosez, M. Veithen, J.-Y. Raty, V. Olevano, F. Bruneval,
- L. Reining, R. Godby, G. Onida, D.R. Hamann, and D.C. Allan.
- Comment : the second generic paper describing the ABINIT project. Note that this paper
- should be cited especially if you are using the GW part of ABINIT, as several authors
- of this part are not in the list of authors of the first or third paper.
- The .pdf of the latter paper is available at https://www.abinit.org/about/zfk_0505-06_558-562.pdf.
- Note that it should not redistributed (Copyright by Oldenburg Wissenshaftverlag,
- the licence allows the authors to put it on the Web).
-
- And optionally:
-
- [5] First-principles computation of material properties : the ABINIT software project. 
- X. Gonze, J.-M. Beuken, R. Caracas, F. Detraux, M. Fuchs, G.-M. Rignanese, L. Sindic,
- M. Verstraete, G. Zerah, F. Jollet, M. Torrent, A. Roy, M. Mikami, Ph. Ghosez, J.-Y. Raty, D.C. Allan.
- Computational Materials Science 25, 478-492 (2002). http://dx.doi.org/10.1016/S0927-0256(02)00325-7
- Comment : the original paper describing the ABINIT project.
-
- Proc.   0 individual time (sec): cpu=          1.6  wall=          1.9

================================================================================

 Calculation completed.
.Delivered   2 WARNINGs and   1 COMMENTs to log file.
+Overall time at end (sec) : cpu=          1.6  wall=          1.9
