
.Version 8.6.3 of ABINIT 
.(sequential version, prepared for a x86_64_linux_gnu5.4 computer) 

.Copyright (C) 1998-2017 ABINIT group . 
 ABINIT comes with ABSOLUTELY NO WARRANTY.
 It is free software, and you are welcome to redistribute it
 under certain conditions (GNU General Public License,
 see ~abinit/COPYING or http://www.gnu.org/copyleft/gpl.txt).

 ABINIT is a project of the Universite Catholique de Louvain,
 Corning Inc. and other collaborators, see ~abinit/doc/developers/contributors.txt .
 Please read ~abinit/doc/users/acknowledgments.html for suggested
 acknowledgments of the ABINIT effort.
 For more information, see https://www.abinit.org .

.Starting date : Sat 21 Apr 2018.
- ( at 18h40 )
  
- input  file    -> RutileGeom3.in
- output file    -> RutileGeom3.out
- root for input  files -> RutileGeom3_i
- root for output files -> RutileGeom3_o


 Symmetries : space group P1 (#  1); Bravais aP (primitive triclinic)
================================================================================
 Values of the parameters that define the memory need of the present run
     intxc =       0    ionmov =       2      iscf =       7    lmnmax =       2
     lnmax =       2     mgfft =      30  mpssoang =       3    mqgrid =    3001
     natom =       6  nloc_mem =       1    nspden =       1   nspinor =       1
    nsppol =       1      nsym =       1    n1xccc =    2501    ntypat =       2
    occopt =       1   xclevel =       1
-    mband =          17        mffmem =           1         mkmem =          16
       mpw =         794          nfft =       16200          nkpt =          16
================================================================================
P This job should need less than                       8.668 Mbytes of memory.
  Rough estimation (10% accuracy) of disk space for files :
_ WF disk file :      3.297 Mbytes ; DEN or POT disk file :      0.126 Mbytes.
================================================================================

--------------------------------------------------------------------------------
------------- Echo of variables that govern the present computation ------------
--------------------------------------------------------------------------------
-
- outvars: echo of selected default values                                      
-   iomode0 =  0 , fftalg0 =112 , wfoptalg0 =  0
-
- outvars: echo of global parameters not present in the input file              
-  max_nthreads =    0
-
 -outvars: echo values of preprocessed input variables --------
            acell      8.6808000000E+00  5.5911000000E+00  8.6808000000E+00 Bohr
              amu      4.78800000E+01  1.59994000E+01
           diemac      1.20000000E+01
          dilatmx      1.20000000E+00
             ecut      8.00000000E+00 Hartree
           ecutsm      5.00000000E-01 Hartree
-          fftalg         112
           getwfk          -1
           ionmov           2
              kpt     -2.50000000E-01  5.00000000E-01  0.00000000E+00
                       5.00000000E-01 -2.50000000E-01  0.00000000E+00
                      -2.50000000E-01 -2.50000000E-01  2.50000000E-01
                      -2.50000000E-01  0.00000000E+00  0.00000000E+00
                      -2.50000000E-01  2.50000000E-01  2.50000000E-01
                       5.00000000E-01  5.00000000E-01  2.50000000E-01
                      -2.50000000E-01  5.00000000E-01  5.00000000E-01
                       0.00000000E+00 -2.50000000E-01  0.00000000E+00
                       2.50000000E-01 -2.50000000E-01  2.50000000E-01
                       5.00000000E-01 -2.50000000E-01  5.00000000E-01
                      -2.50000000E-01 -2.50000000E-01 -2.50000000E-01
                       5.00000000E-01  0.00000000E+00  2.50000000E-01
                      -2.50000000E-01  0.00000000E+00  5.00000000E-01
                       0.00000000E+00  5.00000000E-01  2.50000000E-01
                       0.00000000E+00 -2.50000000E-01  5.00000000E-01
                       0.00000000E+00  0.00000000E+00  2.50000000E-01
         kptrlatt        2   -2    2      0    4    0     -2   -2    2
          kptrlen      2.23644000E+01
P           mkmem          16
            natom           6
            nband          17
            ngfft          30      18      30
             nkpt          16
            nstep          10
             nsym           1
            ntime          10
           ntypat           2
              occ      2.000000  2.000000  2.000000  2.000000  2.000000  2.000000
                       2.000000  2.000000  2.000000  2.000000  2.000000  2.000000
                       2.000000  2.000000  2.000000  2.000000  0.000000
          optcell           1
           shiftk      5.00000000E-01  0.00000000E+00  5.00000000E-01
          spgroup           1
           toldfe      1.00000000E-04 Hartree
            typat      1  1  2  2  2  2
              wtk        0.06250    0.06250    0.06250    0.06250    0.06250    0.06250
                         0.06250    0.06250    0.06250    0.06250    0.06250    0.06250
                         0.06250    0.06250    0.06250    0.06250
           xangst      0.0000000000E+00  0.0000000000E+00  0.0000000000E+00
                       1.4793678043E+00  2.2968407562E+00  2.2968407562E+00
                       0.0000000000E+00  1.4240158683E+00  1.4240158683E+00
                       0.0000000000E+00  3.1696656440E+00  3.1696656440E+00
                       1.4793678043E+00  8.7282488785E-01  3.7208566245E+00
                       1.4793678043E+00  3.7208566245E+00  8.7282488785E-01
            xcart      0.0000000000E+00  0.0000000000E+00  0.0000000000E+00
                       2.7956000000E+00  4.3404000000E+00  4.3404000000E+00
                       0.0000000000E+00  2.6910000000E+00  2.6910000000E+00
                       0.0000000000E+00  5.9898000000E+00  5.9898000000E+00
                       2.7956000000E+00  1.6494000000E+00  7.0314000000E+00
                       2.7956000000E+00  7.0314000000E+00  1.6494000000E+00
             xred      0.0000000000E+00  0.0000000000E+00  0.0000000000E+00
                       3.2204405124E-01  7.7630519933E-01  5.0000000000E-01
                       0.0000000000E+00  4.8130063851E-01  3.0999447056E-01
                       0.0000000000E+00  1.0713097602E+00  6.9000552944E-01
                       3.2204405124E-01  2.9500456082E-01  8.0999447056E-01
                       3.2204405124E-01  1.2576058378E+00  1.9000552944E-01
            znucl       22.00000    8.00000

================================================================================

 chkinp: Checking input parameters for consistency.

================================================================================
== DATASET  1 ==================================================================
-   nproc =    1

 Exchange-correlation functional for the present dataset will be:
  LDA: new Teter (4/93) with spin-polarized option - ixc=1
 Citation for XC functional:
  S. Goedecker, M. Teter, J. Huetter, PRB 54, 1703 (1996)

 Real(R)+Recip(G) space primitive vectors, cartesian coordinates (Bohr,Bohr^-1):
 R(1)=  8.6808000  0.0000000  0.0000000  G(1)=  0.1151968  0.0000000  0.0000000
 R(2)=  0.0000000  5.5911000  0.0000000  G(2)=  0.0000000  0.1788557  0.0000000
 R(3)=  0.0000000  0.0000000  8.6808000  G(3)=  0.0000000  0.0000000  0.1151968
 Unit cell volume ucvol=  4.2132455E+02 bohr^3
 Angles (23,13,12)=  9.00000000E+01  9.00000000E+01  9.00000000E+01 degrees

 getcut: wavevector=  0.0000  0.0000  0.0000  ngfft=  30  18  30
         ecut(hartree)=     11.520   => boxcut(ratio)=   2.10709

--- Pseudopotential description ------------------------------------------------
- pspini: atom type   1  psp file is ../../../Psps_for_tests/22ti.pspnc
- pspatm: opening atomic psp file    ../../../Psps_for_tests/22ti.pspnc
-  Troullier-Martins psp for element  Ti        Thu Oct 27 17:33:40 EDT 1994
- 22.00000   4.00000    940714                znucl, zion, pspdat
    1    1    2    0      2001   0.00000      pspcod,pspxc,lmax,lloc,mmax,r2well
    0   5.166   8.509    0   2.4203472        l,e99.0,e99.9,nproj,rcpsp
   0.00000000   0.00000000   0.00000000   0.00000000     rms, ekb1, ekb2, epsatm
    1   2.285   3.944    1   2.9934301        l,e99.0,e99.9,nproj,rcpsp
   0.00000000   0.00000000   0.00000000   0.00000000     rms, ekb1, ekb2, epsatm
    2  20.947  27.069    1   1.9326638        l,e99.0,e99.9,nproj,rcpsp
   0.00000000   0.00000000   0.00000000   0.00000000     rms, ekb1, ekb2, epsatm
    2.82741504495369    0.09256629068341    1.82586447305099   rchrg,fchrg,qchrg
  pspatm : epsatm=   66.67453488
         --- l  ekb(1:nproj) -->
             1    0.915537
             2   -8.015692
 pspatm: atomic psp has been read  and splines computed

- pspini: atom type   2  psp file is ../../../Psps_for_tests/8o.pspnc
- pspatm: opening atomic psp file    ../../../Psps_for_tests/8o.pspnc
-  Troullier-Martins psp for element  O         Thu Oct 27 17:29:57 EDT 1994
-  8.00000   6.00000    940714                znucl, zion, pspdat
    1    1    1    1      2001   0.00000      pspcod,pspxc,lmax,lloc,mmax,r2well
    0   5.480  16.893    1   1.4482335        l,e99.0,e99.9,nproj,rcpsp
   0.00000000   0.00000000   0.00000000   0.00000000     rms, ekb1, ekb2, epsatm
    1  20.911  28.075    0   1.4482335        l,e99.0,e99.9,nproj,rcpsp
   0.00000000   0.00000000   0.00000000   0.00000000     rms, ekb1, ekb2, epsatm
    0.56990156784787    3.95561236318184    0.63894027514378   rchrg,fchrg,qchrg
  pspatm : epsatm=    1.57752239
         --- l  ekb(1:nproj) -->
             0    5.670783
 pspatm: atomic psp has been read  and splines computed

   4.46909310E+03                                ecore*ucvol(ha*bohr**3)
--------------------------------------------------------------------------------

_setup2: Arith. and geom. avg. npw (full set) are     788.688     788.675

================================================================================

=== [ionmov= 2] Broyden-Fletcher-Goldfard-Shanno method (forces)            
================================================================================

--- Iteration: ( 1/10) Internal Cycle: (1/1)
--------------------------------------------------------------------------------

---SELF-CONSISTENT-FIELD CONVERGENCE--------------------------------------------

     iter   Etot(hartree)      deltaE(h)  residm     vres2
 ETOT  1  -66.060716537604    -6.606E+01 3.758E-02 1.500E+03
 ETOT  2  -66.569124690591    -5.084E-01 4.530E-02 9.676E+02
 ETOT  3  -67.369381102668    -8.003E-01 1.012E-02 1.343E+01
 ETOT  4  -67.379436994160    -1.006E-02 2.004E-03 6.721E-01
 ETOT  5  -67.380016713318    -5.797E-04 2.570E-04 1.888E-01
 ETOT  6  -67.380168636913    -1.519E-04 2.351E-04 1.280E-02
 ETOT  7  -67.380180119301    -1.148E-05 1.579E-04 4.857E-04
 ETOT  8  -67.380180665888    -5.466E-07 6.017E-05 5.700E-05

 At SCF step    8, etot is converged : 
  for the second time, diff in etot=  5.466E-07 < toldfe=  1.000E-04

 Cartesian components of stress tensor (hartree/bohr^3)
  sigma(1 1)= -4.67806524E-03  sigma(3 2)=  9.79633379E-04
  sigma(2 2)= -4.62822199E-03  sigma(3 1)= -3.83725474E-04
  sigma(3 3)= -1.49435017E-02  sigma(2 1)= -7.02946719E-04

 Integrated electronic density in atomic spheres:
 ------------------------------------------------
 Atom  Sphere_radius  Integrated_density
    1        2.00000          1.54117710
    2        2.00000          0.90314099
    3        2.00000          6.22470387
    4        2.00000          6.42949890
    5        2.00000          6.32230097
    6        2.00000          6.34984396

---OUTPUT-----------------------------------------------------------------------

 Cartesian coordinates (xcart) [bohr]
  0.00000000000000E+00  0.00000000000000E+00  0.00000000000000E+00
  2.79560000000000E+00  4.34040000000000E+00  4.34040000000000E+00
  0.00000000000000E+00  2.69100000000000E+00  2.69100000000000E+00
  0.00000000000000E+00  5.98980000000000E+00  5.98980000000000E+00
  2.79560000000000E+00  1.64940000000000E+00  7.03140000000000E+00
  2.79560000000000E+00  7.03140000000000E+00  1.64940000000000E+00
 Reduced coordinates (xred)
  0.00000000000000E+00  0.00000000000000E+00  0.00000000000000E+00
  3.22044051239517E-01  7.76305199334657E-01  5.00000000000000E-01
  0.00000000000000E+00  4.81300638514782E-01  3.09994470555709E-01
  0.00000000000000E+00  1.07130976015453E+00  6.90005529444291E-01
  3.22044051239517E-01  2.95004560819874E-01  8.09994470555709E-01
  3.22044051239517E-01  1.25760583784944E+00  1.90005529444291E-01
 Cartesian forces (fcart) [Ha/bohr]; max,rms= 1.50461E+00 5.32067E-01 (free atoms)
 -3.38232655592423E-01 -3.38332247517071E-01  1.44520545962564E+00
  2.80357843640932E-01 -1.52698979389149E-02  7.93461468049163E-03
 -2.97865181249361E-01  6.80547742780950E-02  1.95688464487778E-03
 -2.75654722052714E-01  1.65030512860457E-01 -1.50461328879260E+00
  2.89285790677829E-01  1.30388463102840E-01 -7.48622647540553E-02
  3.42108924575737E-01 -9.87160478540614E-03  1.24378594595643E-01
 Reduced forces (fred)
  2.93613003666671E+00  1.89164942909269E+00 -1.25455395539183E+01
 -2.43373036907820E+00  8.53755263662668E-02 -6.88788031184117E-02
  2.58570806538946E+00 -3.80501048466257E-01 -1.69873242252550E-02
  2.39290351119520E+00 -9.22702100454101E-01  1.30612470373508E+01
 -2.51123209171610E+00 -7.29014936054288E-01  6.49864347877003E-01
 -2.96977915245706E+00  5.51931295156843E-02 -1.07970570396586E+00
 Scale of Primitive Cell (acell) [bohr]
  8.68080000000000E+00  5.59110000000000E+00  8.68080000000000E+00
 Real space primitive translations (rprimd) [bohr]
  8.68080000000000E+00  0.00000000000000E+00  0.00000000000000E+00
  0.00000000000000E+00  5.59110000000000E+00  0.00000000000000E+00
  0.00000000000000E+00  0.00000000000000E+00  8.68080000000000E+00
 Unitary Cell Volume (ucvol) [Bohr^3]=  4.21324545415104E+02
 Angles (23,13,12)= [degrees]
  9.00000000000000E+01  9.00000000000000E+01  9.00000000000000E+01
 Lengths [Bohr]
  8.68080000000000E+00  5.59110000000000E+00  8.68080000000000E+00
 Stress tensor in cartesian coordinates (strten) [Ha/bohr^3]
 -4.67806524236939E-03 -7.02946719256283E-04 -3.83725474390792E-04
 -7.02946719256283E-04 -4.62822198612569E-03  9.79633379055896E-04
 -3.83725474390792E-04  9.79633379055896E-04 -1.49435016780357E-02
 Total energy (etotal) [Ha]= -6.73801806658882E+01

--- Iteration: ( 2/10) Internal Cycle: (1/1)
--------------------------------------------------------------------------------

---SELF-CONSISTENT-FIELD CONVERGENCE--------------------------------------------

     iter   Etot(hartree)      deltaE(h)  residm     vres2
 ETOT  1  -18.709172525467    -1.871E+01 3.748E-02 7.463E+04
 ETOT  2  -61.998961581475    -4.329E+01 2.082E-01 4.767E+03
 ETOT  3  -67.454835409881    -5.456E+00 4.456E-02 9.979E+02
 ETOT  4  -67.986333594659    -5.315E-01 1.076E-02 3.017E+02
 ETOT  5  -68.204071878853    -2.177E-01 3.227E-03 9.174E+01
 ETOT  6  -68.235187621898    -3.112E-02 2.035E-03 3.322E+01
 ETOT  7  -68.270920311416    -3.573E-02 5.680E-04 2.013E+00
 ETOT  8  -68.270721448357     1.989E-04 6.377E-04 2.241E+00
 ETOT  9  -68.272825290860    -2.104E-03 2.147E-04 1.001E-01
 ETOT 10  -68.272881772127    -5.648E-05 2.370E-04 4.255E-02

 Cartesian components of stress tensor (hartree/bohr^3)
  sigma(1 1)=  4.88002184E-03  sigma(3 2)=  5.19589586E-04
  sigma(2 2)=  3.80941297E-03  sigma(3 1)= -1.55192644E-04
  sigma(3 3)=  4.36010127E-03  sigma(2 1)=  8.08858357E-05

 Integrated electronic density in atomic spheres:
 ------------------------------------------------
 Atom  Sphere_radius  Integrated_density
    1        2.00000          0.67137515
    2        2.00000          0.45562942
    3        2.00000          5.84823382
    4        2.00000          5.58364433
    5        2.00000          5.37543324
    6        2.00000          5.46955466

---OUTPUT-----------------------------------------------------------------------

 Cartesian coordinates (xcart) [bohr]
 -4.20253360586539E-01 -4.20377103342682E-01  1.79566473285052E+00
  3.82187112757773E+00  5.37396502174372E+00  5.40279657969012E+00
 -3.70096858928387E-01  3.42811973285609E+00  3.34599324451515E+00
 -3.42500410261381E-01  7.64736391978386E+00  5.57283502073896E+00
  3.83296408292477E+00  2.21138340838807E+00  8.64348345124624E+00
  3.89859671528673E+00  8.72423420906625E+00  2.20391615945432E+00
 Reduced coordinates (xred)
 -3.89633047175863E-02 -6.05126446525855E-02  1.66482980788135E-01
  3.54340365362747E-01  7.73574091334636E-01  5.00914041871774E-01
 -3.43131026229566E-02  4.93472621537460E-01  3.10219897318781E-01
 -3.17545297729142E-02  1.10082640497585E+00  5.16678959451594E-01
  3.55368835899667E-01  3.18325278228406E-01  8.01370580504786E-01
  3.61453889569595E-01  1.25584024524952E+00  2.04333540064930E-01
 Cartesian forces (fcart) [Ha/bohr]; max,rms= 1.99577E-01 8.58588E-02 (free atoms)
 -3.95173428769449E-02  1.69466793612457E-01 -1.70694322030900E-01
  1.31006198090186E-02 -4.95615688860830E-02  6.40435361203041E-02
 -2.48316113154833E-02 -1.99576717769553E-01  7.51515046850975E-02
 -5.79305817501183E-02  4.18191437206982E-02  7.18594690476192E-02
  4.30117274006908E-02  5.27494876497827E-02 -2.83585050780846E-02
  6.61671887328372E-02 -1.48971383273020E-02 -1.20016827440361E-02
 Reduced forces (fred)
  4.26229147292807E-01 -1.17727394366217E+00  1.84108773592166E+00
 -1.41301656530732E-01  3.44300747142443E-01 -6.90765618406469E-01
  2.67830672468612E-01  1.38644547750765E+00 -8.10574786352562E-01
  6.24832052560264E-01 -2.90514661894343E-01 -7.75067299247740E-01
 -4.63919144327966E-01 -3.66446995472355E-01  3.05871310112367E-01
 -7.13671071462985E-01  1.03489376378775E-01  1.29448657972744E-01
 Scale of Primitive Cell (acell) [bohr]
  1.07858756753981E+01  6.94692994755304E+00  1.07858756753981E+01
 Real space primitive translations (rprimd) [bohr]
  1.07858756753981E+01  0.00000000000000E+00  0.00000000000000E+00
  0.00000000000000E+00  6.94692994755304E+00  0.00000000000000E+00
  0.00000000000000E+00  0.00000000000000E+00  1.07858756753981E+01
 Unitary Cell Volume (ucvol) [Bohr^3]=  8.08171887990093E+02
 Angles (23,13,12)= [degrees]
  9.00000000000000E+01  9.00000000000000E+01  9.00000000000000E+01
 Lengths [Bohr]
  1.07858756753981E+01  6.94692994755304E+00  1.07858756753981E+01
 Stress tensor in cartesian coordinates (strten) [Ha/bohr^3]
  4.88002184223149E-03  8.08858357354947E-05 -1.55192644127550E-04
  8.08858357354947E-05  3.80941296502428E-03  5.19589586078201E-04
 -1.55192644127550E-04  5.19589586078201E-04  4.36010126754145E-03
 Total energy (etotal) [Ha]= -6.82728817721269E+01

 Difference of energy with previous step (new-old):
           Absolute (Ha)=-8.92701E-01
           Relative     =-1.31615E-02

--- Iteration: ( 3/10) Internal Cycle: (1/1)
--------------------------------------------------------------------------------

---SELF-CONSISTENT-FIELD CONVERGENCE--------------------------------------------

     iter   Etot(hartree)      deltaE(h)  residm     vres2
 ETOT  1  -63.938733571838    -6.394E+01 7.627E-01 5.943E+03
 ETOT  2  -66.396427764219    -2.458E+00 1.116E-02 1.422E+03
 ETOT  3  -67.868515242507    -1.472E+00 2.304E-02 1.853E+02
 ETOT  4  -68.019520980958    -1.510E-01 1.040E-02 4.648E+01
 ETOT  5  -68.058753804009    -3.923E-02 1.294E-03 5.495E+00
 ETOT  6  -68.061829302767    -3.075E-03 3.439E-04 9.102E-01
 ETOT  7  -68.062421916059    -5.926E-04 1.638E-04 9.839E-02
 ETOT  8  -68.062482867512    -6.095E-05 3.908E-05 1.105E-02
 ETOT  9  -68.062492388339    -9.521E-06 2.864E-05 1.024E-03

 At SCF step    9, etot is converged : 
  for the second time, diff in etot=  9.521E-06 < toldfe=  1.000E-04

 Cartesian components of stress tensor (hartree/bohr^3)
  sigma(1 1)= -7.95412527E-04  sigma(3 2)=  3.92025179E-04
  sigma(2 2)= -6.06327871E-03  sigma(3 1)= -4.56824309E-04
  sigma(3 3)= -4.80354109E-03  sigma(2 1)=  1.04228796E-04

 Integrated electronic density in atomic spheres:
 ------------------------------------------------
 Atom  Sphere_radius  Integrated_density
    1        2.00000          1.01169538
    2        2.00000          0.64402593
    3        2.00000          6.56565047
    4        2.00000          6.31630626
    5        2.00000          5.74587951
    6        2.00000          5.82263204

---OUTPUT-----------------------------------------------------------------------

 Cartesian coordinates (xcart) [bohr]
 -4.49411083828766E-01 -2.46198640359124E-01  1.58988656386102E+00
  3.40184860196660E+00  4.66621042355247E+00  4.80493791890279E+00
 -3.86074814095191E-01  2.82290660027132E+00  3.00989568820757E+00
 -3.91292491024005E-01  6.77277714955291E+00  4.77334077426339E+00
  3.44179865645992E+00  2.00833561584328E+00  7.54883229200397E+00
  3.52850962307368E+00  7.64089516932590E+00  1.93803308094802E+00
 Reduced coordinates (xred)
 -4.74764930372283E-02 -4.03815507409862E-02  1.67958114731079E-01
  3.59376631499613E-01  7.65352776570764E-01  5.07601191558554E-01
 -4.07855499848407E-02  4.63013711000359E-01  3.17970109830263E-01
 -4.13367535739265E-02  1.11087227664264E+00  5.04263219551525E-01
  3.63597018028201E-01  3.29407613534367E-01  7.97470504503812E-01
  3.72757300786732E-01  1.25326116966614E+00  2.04736859824767E-01
 Cartesian forces (fcart) [Ha/bohr]; max,rms= 7.82799E-01 2.52320E-01 (free atoms)
 -1.07152634778578E-01 -8.45681628676686E-02 -7.82799274781038E-01
  1.03864860916206E-01  1.83376658636556E-02  6.92713300092078E-02
 -3.82828310029560E-02  2.20654016767769E-01  5.89299375595847E-02
 -5.99753397281200E-02 -1.29760217652617E-01  6.45895410100655E-01
  2.39087888467241E-02 -1.28821875533595E-02  1.95395080548402E-02
  7.76371557467242E-02 -1.17811145577799E-02 -1.08369109432494E-02
 Reduced forces (fred)
  1.01430368273385E+00  5.15596016835398E-01  7.40995486384932E+00
 -9.83181712252288E-01 -1.11801263699604E-01 -6.55720368252281E-01
  3.62384149974620E-01 -1.34528560496480E+00 -5.57829052113168E-01
  5.67724798229671E-01  7.91123386114869E-01 -6.11402691571481E+00
 -2.26319890565925E-01  7.85402492546993E-02 -1.84960407364564E-01
 -7.34911028119927E-01  7.18272164594355E-02  1.02581879595500E-01
 Scale of Primitive Cell (acell) [bohr]
  9.46597052727470E+00  6.09680995012506E+00  9.46597052727470E+00
 Real space primitive translations (rprimd) [bohr]
  9.46597052727470E+00  0.00000000000000E+00  0.00000000000000E+00
  0.00000000000000E+00  6.09680995012506E+00  0.00000000000000E+00
  0.00000000000000E+00  0.00000000000000E+00  9.46597052727470E+00
 Unitary Cell Volume (ucvol) [Bohr^3]=  5.46302204805005E+02
 Angles (23,13,12)= [degrees]
  9.00000000000000E+01  9.00000000000000E+01  9.00000000000000E+01
 Lengths [Bohr]
  9.46597052727470E+00  6.09680995012506E+00  9.46597052727470E+00
 Stress tensor in cartesian coordinates (strten) [Ha/bohr^3]
 -7.95412527321883E-04  1.04228796015662E-04 -4.56824308512289E-04
  1.04228796015662E-04 -6.06327871348156E-03  3.92025179144749E-04
 -4.56824308512289E-04  3.92025179144749E-04 -4.80354109244731E-03
 Total energy (etotal) [Ha]= -6.80624923883389E+01

 Difference of energy with previous step (new-old):
           Absolute (Ha)= 2.10389E-01
           Relative     = 3.08635E-03

--- Iteration: ( 4/10) Internal Cycle: (1/1)
--------------------------------------------------------------------------------

---SELF-CONSISTENT-FIELD CONVERGENCE--------------------------------------------

     iter   Etot(hartree)      deltaE(h)  residm     vres2
 ETOT  1  -65.897037278071    -6.590E+01 1.952E-02 4.299E+03
 ETOT  2  -65.793511432606     1.035E-01 1.778E-02 3.420E+03
 ETOT  3  -68.218991324489    -2.425E+00 2.724E-02 2.621E+02
 ETOT  4  -68.520694745793    -3.017E-01 6.448E-03 3.173E+01
 ETOT  5  -68.548594390034    -2.790E-02 1.359E-02 6.185E+00
 ETOT  6  -68.549239076877    -6.447E-04 9.387E-04 5.641E+00
 ETOT  7  -68.552974417618    -3.735E-03 1.107E-04 2.719E-01
 ETOT  8  -68.553097252103    -1.228E-04 5.564E-05 7.979E-02
 ETOT  9  -68.553162003215    -6.475E-05 2.889E-05 4.652E-03
 ETOT 10  -68.553165347062    -3.344E-06 1.395E-05 6.230E-04

 At SCF step   10, etot is converged : 
  for the second time, diff in etot=  3.344E-06 < toldfe=  1.000E-04

 Cartesian components of stress tensor (hartree/bohr^3)
  sigma(1 1)= -9.50160513E-04  sigma(3 2)=  3.99188369E-04
  sigma(2 2)= -1.94610591E-03  sigma(3 1)= -2.37249646E-04
  sigma(3 3)= -2.08304774E-03  sigma(2 1)=  6.71418582E-05

 Integrated electronic density in atomic spheres:
 ------------------------------------------------
 Atom  Sphere_radius  Integrated_density
    1        2.00000          0.59589451
    2        2.00000          0.58355463
    3        2.00000          5.98939704
    4        2.00000          5.67085618
    5        2.00000          5.75007590
    6        2.00000          5.71905366

---OUTPUT-----------------------------------------------------------------------

 Cartesian coordinates (xcart) [bohr]
 -5.28427222859888E-01 -2.32658279651942E-01  8.87377663457234E-01
  3.51558675151172E+00  4.73113959518862E+00  4.94775153764681E+00
 -4.10595694133160E-01  2.95321028347643E+00  3.12324395084503E+00
 -4.44813155111716E-01  6.77980102290465E+00  5.43617011893700E+00
  3.50692124923196E+00  2.03847826431555E+00  7.66750531115747E+00
  3.63947735396082E+00  7.73851813591809E+00  1.94644044010786E+00
 Reduced coordinates (xred)
 -5.50250395154330E-02 -3.76145770763450E-02  9.24024896608963E-02
  3.66077468293409E-01  7.64897837413733E-01  5.15208551138076E-01
 -4.27552618736569E-02  4.77454556943603E-01  3.25222877204327E-01
 -4.63183204387946E-02  1.09611120876437E+00  5.66067497409076E-01
  3.65175130970998E-01  3.29567028116342E-01  7.98416062760453E-01
  3.78978176282029E-01  1.25110994251158E+00  2.02682521827173E-01
 Cartesian forces (fcart) [Ha/bohr]; max,rms= 1.49332E-01 5.18320E-02 (free atoms)
 -3.71069532091112E-02  4.60179351644331E-02 -1.49332061000379E-01
  4.71902077769315E-02  1.94866036960332E-02  7.16177795626283E-03
 -3.79962994987597E-02  7.47828583055408E-03  1.80065880650935E-02
 -4.57503118220913E-02 -2.38493482297135E-02  1.03476486955492E-01
  2.25033689436746E-02 -1.67350483914477E-02  1.50765994118872E-02
  5.11599878093560E-02 -3.23984280698592E-02  5.61060861164288E-03
 Reduced forces (fred)
  3.56352751506572E-01 -2.84635757216174E-01  1.43409485887313E+00
 -4.53186234146201E-01 -1.20530922971068E-01 -6.87773869768088E-02
  3.64893495759339E-01 -4.62556075680666E-02 -1.72924388754880E-01
  4.39358343656273E-01  1.47515903706245E-01 -9.93725640448692E-01
 -2.16108754498254E-01  1.03511666786619E-01 -1.44786548588667E-01
 -4.91309602277729E-01  2.00394717262446E-01 -5.38808941040865E-02
 Scale of Primitive Cell (acell) [bohr]
  9.60339560886056E+00  6.18532222706436E+00  9.60339560886056E+00
 Real space primitive translations (rprimd) [bohr]
  9.60339560886056E+00  0.00000000000000E+00  0.00000000000000E+00
  0.00000000000000E+00  6.18532222706436E+00  0.00000000000000E+00
  0.00000000000000E+00  0.00000000000000E+00  9.60339560886056E+00
 Unitary Cell Volume (ucvol) [Bohr^3]=  5.70442624115228E+02
 Angles (23,13,12)= [degrees]
  9.00000000000000E+01  9.00000000000000E+01  9.00000000000000E+01
 Lengths [Bohr]
  9.60339560886056E+00  6.18532222706436E+00  9.60339560886056E+00
 Stress tensor in cartesian coordinates (strten) [Ha/bohr^3]
 -9.50160513307213E-04  6.71418582029714E-05 -2.37249645844342E-04
  6.71418582029714E-05 -1.94610590831930E-03  3.99188369108508E-04
 -2.37249645844342E-04  3.99188369108508E-04 -2.08304774442333E-03
 Total energy (etotal) [Ha]= -6.85531653470618E+01

 Difference of energy with previous step (new-old):
           Absolute (Ha)=-4.90673E-01
           Relative     =-7.18326E-03

--- Iteration: ( 5/10) Internal Cycle: (1/1)
--------------------------------------------------------------------------------

---SELF-CONSISTENT-FIELD CONVERGENCE--------------------------------------------

     iter   Etot(hartree)      deltaE(h)  residm     vres2
 ETOT  1  -68.157407327201    -6.816E+01 1.410E-03 5.520E+02
 ETOT  2  -68.315542178872    -1.581E-01 2.634E-03 2.418E+02
 ETOT  3  -68.620623580869    -3.051E-01 2.383E-03 4.935E+00
 ETOT  4  -68.623682913430    -3.059E-03 2.142E-04 4.812E+00
 ETOT  5  -68.627442381399    -3.759E-03 3.047E-05 8.514E-02
 ETOT  6  -68.627478241474    -3.586E-05 2.724E-05 2.455E-02
 ETOT  7  -68.627512727064    -3.449E-05 4.828E-06 2.809E-03

 At SCF step    7, etot is converged : 
  for the second time, diff in etot=  3.449E-05 < toldfe=  1.000E-04

 Cartesian components of stress tensor (hartree/bohr^3)
  sigma(1 1)=  4.13176914E-04  sigma(3 2)=  8.60885486E-05
  sigma(2 2)= -7.10409981E-04  sigma(3 1)= -1.49178194E-04
  sigma(3 3)= -1.56259781E-04  sigma(2 1)=  5.99731229E-05

 Integrated electronic density in atomic spheres:
 ------------------------------------------------
 Atom  Sphere_radius  Integrated_density
    1        2.00000          0.53487607
    2        2.00000          0.51860759
    3        2.00000          5.80163247
    4        2.00000          5.55563604
    5        2.00000          5.66186196
    6        2.00000          5.60462118

---OUTPUT-----------------------------------------------------------------------

 Cartesian coordinates (xcart) [bohr]
 -5.80179304514761E-01 -1.16438024216400E-01  7.58584258786228E-01
  3.66554292100589E+00  4.88488257648986E+00  5.09486321628118E+00
 -4.72048488370686E-01  2.97571766612235E+00  3.24006112438117E+00
 -5.21058940035999E-01  6.95878611413060E+00  5.68182643559715E+00
  3.63635732840424E+00  2.07619724836003E+00  7.90122336841896E+00
  3.81053959016967E+00  7.90472678052667E+00  2.00731395794842E+00
 Reduced coordinates (xred)
 -5.87609691076797E-02 -1.83098183048357E-02  7.68299486886911E-02
  3.71248772005484E-01  7.68145225907994E-01  5.16011339477440E-01
 -4.78094037940145E-02  4.67930043985716E-01  3.28155675590651E-01
 -5.27732169011841E-02  1.09426547066056E+00  5.75459388260250E-01
  3.68292834604909E-01  3.26480929561477E-01  8.00241474750382E-01
  3.85934136911037E-01  1.24301414486237E+00  2.03302173232586E-01
 Cartesian forces (fcart) [Ha/bohr]; max,rms= 7.91914E-02 3.13005E-02 (free atoms)
 -1.33992102071318E-02  1.48623270571412E-02 -7.91914333088756E-02
  2.15147273501901E-02  1.30031715295236E-02  5.55674731823634E-03
 -3.27531312576996E-02 -1.23164512765316E-03  2.32682681541197E-02
 -3.68887333867148E-02  1.35057571251619E-02  3.79876556756043E-02
  1.58618772956280E-02  1.48275632279974E-02  1.50953553198019E-03
  4.56644702057281E-02 -5.49671738121709E-02  1.08692266289351E-02
 Reduced forces (fred)
  1.32297757798634E-01 -9.45143184372517E-02  7.81900492765457E-01
 -2.12426713521078E-01 -8.26913504130624E-02 -5.48648166191882E-02
  3.23389644560666E-01  7.83242754308568E-03 -2.29740384474969E-01
  3.64222714596746E-01 -8.58874538795989E-02 -3.75072977602370E-01
 -1.56613021831072E-01 -9.42932440654414E-02 -1.49044729585667E-02
 -4.50870381603897E-01  3.49553939252269E-01 -1.07317841110363E-01
 Scale of Primitive Cell (acell) [bohr]
  9.87354894456524E+00  6.35932166435797E+00  9.87354894456524E+00
 Real space primitive translations (rprimd) [bohr]
  9.87354894456524E+00  0.00000000000000E+00  0.00000000000000E+00
  0.00000000000000E+00  6.35932166435797E+00  0.00000000000000E+00
  0.00000000000000E+00  0.00000000000000E+00  9.87354894456524E+00
 Unitary Cell Volume (ucvol) [Bohr^3]=  6.19950992432670E+02
 Angles (23,13,12)= [degrees]
  9.00000000000000E+01  9.00000000000000E+01  9.00000000000000E+01
 Lengths [Bohr]
  9.87354894456524E+00  6.35932166435797E+00  9.87354894456524E+00
 Stress tensor in cartesian coordinates (strten) [Ha/bohr^3]
  4.13176913828387E-04  5.99731228603421E-05 -1.49178194087283E-04
  5.99731228603421E-05 -7.10409980969370E-04  8.60885486447377E-05
 -1.49178194087283E-04  8.60885486447377E-05 -1.56259780711964E-04
 Total energy (etotal) [Ha]= -6.86275127270645E+01

 Difference of energy with previous step (new-old):
           Absolute (Ha)=-7.43474E-02
           Relative     =-1.08393E-03

--- Iteration: ( 6/10) Internal Cycle: (1/1)
--------------------------------------------------------------------------------

---SELF-CONSISTENT-FIELD CONVERGENCE--------------------------------------------

     iter   Etot(hartree)      deltaE(h)  residm     vres2
 ETOT  1  -68.548612674729    -6.855E+01 2.444E-04 1.501E+02
 ETOT  2  -68.508880426836     3.973E-02 4.285E-04 1.820E+02
 ETOT  3  -68.649382591778    -1.405E-01 1.668E-03 1.639E+01
 ETOT  4  -68.662981835703    -1.360E-02 4.016E-04 2.008E+00
 ETOT  5  -68.665189202086    -2.207E-03 3.441E-05 4.025E-02
 ETOT  6  -68.665221823459    -3.262E-05 1.470E-05 3.582E-03
 ETOT  7  -68.665225403143    -3.580E-06 2.945E-06 7.911E-04

 At SCF step    7, etot is converged : 
  for the second time, diff in etot=  3.580E-06 < toldfe=  1.000E-04

 Cartesian components of stress tensor (hartree/bohr^3)
  sigma(1 1)=  6.35089978E-04  sigma(3 2)=  1.09161635E-04
  sigma(2 2)= -6.32061706E-04  sigma(3 1)= -1.28630627E-04
  sigma(3 3)=  9.61858790E-05  sigma(2 1)=  6.66923928E-05

 Integrated electronic density in atomic spheres:
 ------------------------------------------------
 Atom  Sphere_radius  Integrated_density
    1        2.00000          0.49991791
    2        2.00000          0.52065768
    3        2.00000          5.69415441
    4        2.00000          5.53271706
    5        2.00000          5.64365239
    6        2.00000          5.59634609

---OUTPUT-----------------------------------------------------------------------

 Cartesian coordinates (xcart) [bohr]
 -6.21959415679888E-01 -3.88814515603942E-02  5.70294162540082E-01
  3.74514726372675E+00  4.94380899076203E+00  5.14404972149192E+00
 -5.52071859946708E-01  2.95822784387109E+00  3.31672579210519E+00
 -6.15193767347950E-01  7.02905660376113E+00  5.81331098774998E+00
  3.70165997420520E+00  2.11358175187278E+00  7.95957053050519E+00
  3.94404642799578E+00  7.83974262502326E+00  2.04158516933754E+00
 Reduced coordinates (xred)
 -6.25826110749453E-02 -6.07430497014259E-03  5.73839656941972E-02
  3.76843068398596E-01  7.72352942568922E-01  5.17603005846286E-01
 -5.55504067073227E-02  4.62152964297875E-01  3.33734573441029E-01
 -6.19018400671382E-02  1.09812344318780E+00  5.84945209337118E-01
  3.72467303584656E-01  3.30197038046832E-01  8.00905483985119E-01
  3.96856639584705E-01  1.22477391354200E+00  2.05427761696252E-01
 Cartesian forces (fcart) [Ha/bohr]; max,rms= 4.39789E-02 2.29057E-02 (free atoms)
  4.58221330465501E-03  1.07376631223673E-02 -4.09572155512059E-02
  1.21395166174825E-02  8.11278374279007E-03 -2.25191902972529E-03
 -3.85738024405629E-02 -1.26851355141636E-02  8.76340479783200E-03
 -3.38283685269587E-02  2.06913138255644E-02  3.10812717045048E-02
  1.17014938813810E-02  5.41773942023304E-03  1.38747397804101E-03
  4.39789471640031E-02 -3.22743645967912E-02  1.97698410055338E-03
 Reduced forces (fred)
 -4.55390189148692E-02 -6.87314730847890E-02  4.07041595333844E-01
 -1.20645120623105E-01 -5.19296956056259E-02  2.23800544564860E-02
  3.83354724489736E-01  8.11971879013858E-02 -8.70925970298480E-02
  3.36193584144883E-01 -1.32444505204142E-01 -3.08892346546097E-01
 -1.16291956695926E-01 -3.46787943427352E-02 -1.37890140700587E-02
 -4.37072212400718E-01  2.06587280335906E-01 -1.96476921443260E-02
 Scale of Primitive Cell (acell) [bohr]
  9.93821454549196E+00  6.40097126362779E+00  9.93821454549196E+00
 Real space primitive translations (rprimd) [bohr]
  9.93821454549196E+00  0.00000000000000E+00  0.00000000000000E+00
  0.00000000000000E+00  6.40097126362779E+00  0.00000000000000E+00
  0.00000000000000E+00  0.00000000000000E+00  9.93821454549196E+00
 Unitary Cell Volume (ucvol) [Bohr^3]=  6.32211823325487E+02
 Angles (23,13,12)= [degrees]
  9.00000000000000E+01  9.00000000000000E+01  9.00000000000000E+01
 Lengths [Bohr]
  9.93821454549196E+00  6.40097126362779E+00  9.93821454549196E+00
 Stress tensor in cartesian coordinates (strten) [Ha/bohr^3]
  6.35089977605906E-04  6.66923927896435E-05 -1.28630626607242E-04
  6.66923927896435E-05 -6.32061705774305E-04  1.09161635011582E-04
 -1.28630626607242E-04  1.09161635011582E-04  9.61858790315701E-05
 Total energy (etotal) [Ha]= -6.86652254031425E+01

 Difference of energy with previous step (new-old):
           Absolute (Ha)=-3.77127E-02
           Relative     =-5.49376E-04

--- Iteration: ( 7/10) Internal Cycle: (1/1)
--------------------------------------------------------------------------------

---SELF-CONSISTENT-FIELD CONVERGENCE--------------------------------------------

     iter   Etot(hartree)      deltaE(h)  residm     vres2
 ETOT  1  -68.297229901999    -6.830E+01 7.857E-04 4.800E+02
 ETOT  2  -68.179931763931     1.173E-01 1.900E-03 5.352E+02
 ETOT  3  -68.641946943460    -4.620E-01 4.743E-03 3.852E+01
 ETOT  4  -68.681539095506    -3.959E-02 4.649E-04 2.118E+00
 ETOT  5  -68.684122949084    -2.584E-03 2.055E-04 6.562E-02
 ETOT  6  -68.684182289189    -5.934E-05 7.664E-05 1.244E-02
 ETOT  7  -68.684193180169    -1.089E-05 7.452E-05 7.793E-04

 At SCF step    7, etot is converged : 
  for the second time, diff in etot=  1.089E-05 < toldfe=  1.000E-04

 Cartesian components of stress tensor (hartree/bohr^3)
  sigma(1 1)=  4.71012427E-04  sigma(3 2)=  1.82790770E-04
  sigma(2 2)= -4.46029670E-04  sigma(3 1)= -1.33603618E-04
  sigma(3 3)= -4.39607914E-04  sigma(2 1)=  5.16752458E-05

 Integrated electronic density in atomic spheres:
 ------------------------------------------------
 Atom  Sphere_radius  Integrated_density
    1        2.00000          0.48580812
    2        2.00000          0.51144600
    3        2.00000          5.56556952
    4        2.00000          5.59685859
    5        2.00000          5.63698840
    6        2.00000          5.57609140

---OUTPUT-----------------------------------------------------------------------

 Cartesian coordinates (xcart) [bohr]
 -6.67296246653834E-01  1.30011541830219E-01  1.67107560076953E-01
  3.89890037632180E+00  5.04571262727661E+00  5.20355094139901E+00
 -7.92448183520626E-01  2.87086288081560E+00  3.44380035225314E+00
 -8.58881981414476E-01  7.18168466935818E+00  6.11471606420230E+00
  3.83184448347936E+00  2.16579900915221E+00  8.04612389227976E+00
  4.27300158506824E+00  7.66751115765632E+00  2.08628307587802E+00
 Reduced coordinates (xred)
 -6.65656551217372E-02  2.01361263536873E-02  1.66696939599120E-02
  3.88931991009509E-01  7.81477594811677E-01  5.19076465828293E-01
 -7.90500961913031E-02  4.44637890593626E-01  3.43533816810330E-01
 -8.56771517175471E-02  1.11229593848969E+00  6.09969084552916E-01
  3.82242878850985E-01  3.35437930287225E-01  8.02635277458872E-01
  4.26250186888646E-01  1.18754051613738E+00  2.08115661389679E-01
 Cartesian forces (fcart) [Ha/bohr]; max,rms= 4.12507E-02 1.95120E-02 (free atoms)
  1.00421620801041E-02  9.76620720144410E-03  3.51044396720568E-02
 -1.55067545707945E-02  4.66588252936624E-03 -5.34788951632130E-03
  2.01528026619522E-02  4.12507313210728E-02 -1.82513349805909E-02
 -3.24000960164253E-02 -2.07394603000049E-02 -1.20147021382386E-02
  5.12996782324894E-03 -9.40132741329020E-03  8.70695872172123E-03
  1.25819180219145E-02 -2.55420333385881E-02 -8.19747175862721E-03
 Reduced forces (fred)
 -1.00668986913564E-01 -6.30567982039221E-02 -3.51909115762612E-01
  1.55449519785382E-01 -3.01258827535369E-02  5.36106284124176E-02
 -2.02024445658684E-01 -2.66340759214332E-01  1.82962930458609E-01
  3.24799063773117E-01  1.33907046617062E-01  1.20442976589775E-01
 -5.14260434701423E-02  6.07009039764365E-02 -8.72840635932859E-02
 -1.26129107516109E-01  1.64915489578293E-01  8.21766438950956E-02
 Scale of Primitive Cell (acell) [bohr]
  1.00246327544357E+01  6.45663120833624E+00  1.00246327544357E+01
 Real space primitive translations (rprimd) [bohr]
  1.00246327544357E+01  0.00000000000000E+00  0.00000000000000E+00
  0.00000000000000E+00  6.45663120833624E+00  0.00000000000000E+00
  0.00000000000000E+00  0.00000000000000E+00  1.00246327544357E+01
 Unitary Cell Volume (ucvol) [Bohr^3]=  6.48847930761203E+02
 Angles (23,13,12)= [degrees]
  9.00000000000000E+01  9.00000000000000E+01  9.00000000000000E+01
 Lengths [Bohr]
  1.00246327544357E+01  6.45663120833624E+00  1.00246327544357E+01
 Stress tensor in cartesian coordinates (strten) [Ha/bohr^3]
  4.71012426581733E-04  5.16752457513239E-05 -1.33603617547528E-04
  5.16752457513239E-05 -4.46029669508135E-04  1.82790769640680E-04
 -1.33603617547528E-04  1.82790769640680E-04 -4.39607914074599E-04
 Total energy (etotal) [Ha]= -6.86841931801688E+01

 Difference of energy with previous step (new-old):
           Absolute (Ha)=-1.89678E-02
           Relative     =-2.76197E-04

--- Iteration: ( 8/10) Internal Cycle: (1/1)
--------------------------------------------------------------------------------

---SELF-CONSISTENT-FIELD CONVERGENCE--------------------------------------------

     iter   Etot(hartree)      deltaE(h)  residm     vres2
 ETOT  1  -68.686166162186    -6.869E+01 1.959E-04 8.233E+00
 ETOT  2  -68.689133029726    -2.967E-03 1.454E-04 2.396E+00
 ETOT  3  -68.690029560030    -8.965E-04 1.998E-04 1.760E+00
 ETOT  4  -68.692094425256    -2.065E-03 1.105E-04 5.628E-02
 ETOT  5  -68.692137503351    -4.308E-05 9.967E-05 3.046E-03
 ETOT  6  -68.692140903186    -3.400E-06 9.612E-05 7.179E-04

 At SCF step    6, etot is converged : 
  for the second time, diff in etot=  3.400E-06 < toldfe=  1.000E-04

 Cartesian components of stress tensor (hartree/bohr^3)
  sigma(1 1)=  2.69027756E-04  sigma(3 2)=  1.56711380E-04
  sigma(2 2)= -4.83801657E-04  sigma(3 1)= -1.41208681E-04
  sigma(3 3)= -5.94005469E-04  sigma(2 1)=  5.67634244E-05

 Integrated electronic density in atomic spheres:
 ------------------------------------------------
 Atom  Sphere_radius  Integrated_density
    1        2.00000          0.48136402
    2        2.00000          0.50387308
    3        2.00000          5.56924234
    4        2.00000          5.55254164
    5        2.00000          5.62649000
    6        2.00000          5.57860882

---OUTPUT-----------------------------------------------------------------------

 Cartesian coordinates (xcart) [bohr]
 -6.53586128841234E-01  1.39944484504644E-01  2.15076586766541E-01
  3.88763466807648E+00  5.06244450707279E+00  5.20766008790824E+00
 -7.72776590127641E-01  2.92335982714476E+00  3.42973526001741E+00
 -8.99221710507148E-01  7.17773734326559E+00  6.11000828487906E+00
  3.84597974365608E+00  2.16113552877192E+00  8.07356357827596E+00
  4.29867822706809E+00  7.65282257388987E+00  2.08140046680239E+00
 Reduced coordinates (xred)
 -6.50530087729800E-02  2.16263306478326E-02  2.14070930645241E-02
  3.86945684751450E-01  7.82325214057484E-01  5.18331008624704E-01
 -7.69163237693784E-02  4.51761614244434E-01  3.41369848767261E-01
 -8.95017125381579E-02  1.10921213964389E+00  6.08143907925210E-01
  3.82799669338665E-01  3.33971229273055E-01  8.03581317152432E-01
  4.27857844708954E-01  1.18262946880659E+00  2.07166824465872E-01
 Cartesian forces (fcart) [Ha/bohr]; max,rms= 3.90124E-02 1.67452E-02 (free atoms)
  1.13429683218573E-02  1.47783322900002E-02  2.60248720625516E-02
 -1.59648583580272E-02  6.08451416547791E-03 -3.58718183445024E-04
  2.58456124507799E-02  5.46085839889950E-03 -1.25334655165202E-02
 -3.90123958964618E-02  1.55655161728142E-03 -1.02928503993099E-02
  5.15524608325954E-03  3.45346054569887E-03  4.13288751384951E-03
  1.26334273985923E-02 -3.13337170173579E-02 -6.97272547712601E-03
 Reduced forces (fred)
 -1.13962549847974E-01 -9.56309291594823E-02 -2.61471309410310E-01
  1.60398576000309E-01 -3.93730315241596E-02  3.60403359175869E-03
 -2.59670292087279E-01 -3.53373406719571E-02  1.25923448621641E-01
  3.91956671823929E-01 -1.00724814224160E-02  1.03412038491617E-01
 -5.17946424667298E-02 -2.23474228566552E-02 -4.15230287124725E-02
 -1.26927763422255E-01  2.02761205634670E-01  7.00548174177659E-02
 Scale of Primitive Cell (acell) [bohr]
  1.00469777058598E+01  6.47102306829243E+00  1.00469777058598E+01
 Real space primitive translations (rprimd) [bohr]
  1.00469777058598E+01  0.00000000000000E+00  0.00000000000000E+00
  0.00000000000000E+00  6.47102306829243E+00  0.00000000000000E+00
  0.00000000000000E+00  0.00000000000000E+00  1.00469777058598E+01
 Unitary Cell Volume (ucvol) [Bohr^3]=  6.53196464127711E+02
 Angles (23,13,12)= [degrees]
  9.00000000000000E+01  9.00000000000000E+01  9.00000000000000E+01
 Lengths [Bohr]
  1.00469777058598E+01  6.47102306829243E+00  1.00469777058598E+01
 Stress tensor in cartesian coordinates (strten) [Ha/bohr^3]
  2.69027755638343E-04  5.67634244259741E-05 -1.41208681216340E-04
  5.67634244259741E-05 -4.83801657128254E-04  1.56711379893465E-04
 -1.41208681216340E-04  1.56711379893465E-04 -5.94005468528861E-04
 Total energy (etotal) [Ha]= -6.86921409031863E+01

 Difference of energy with previous step (new-old):
           Absolute (Ha)=-7.94772E-03
           Relative     =-1.15707E-04

--- Iteration: ( 9/10) Internal Cycle: (1/1)
--------------------------------------------------------------------------------

---SELF-CONSISTENT-FIELD CONVERGENCE--------------------------------------------

     iter   Etot(hartree)      deltaE(h)  residm     vres2
 ETOT  1  -62.093207039941    -6.209E+01 2.000E-02 5.646E+03
 ETOT  2  -65.511261360773    -3.418E+00 1.767E-02 1.625E+03
 ETOT  3  -67.593799665006    -2.083E+00 1.865E-02 4.523E+02
 ETOT  4  -67.939345365912    -3.455E-01 3.381E-03 1.026E+02
 ETOT  5  -68.047658334102    -1.083E-01 2.632E-03 1.739E+01
 ETOT  6  -68.057857597097    -1.020E-02 2.302E-03 1.082E+01
 ETOT  7  -68.068692575974    -1.083E-02 1.320E-03 1.225E+00
 ETOT  8  -68.069757452239    -1.065E-03 1.631E-03 1.809E-01
 ETOT  9  -68.070035956654    -2.785E-04 4.205E-04 1.181E-02
 ETOT 10  -68.070050344313    -1.439E-05 3.908E-04 3.011E-03

 Cartesian components of stress tensor (hartree/bohr^3)
  sigma(1 1)=  4.90051793E-03  sigma(3 2)=  4.82718292E-05
  sigma(2 2)=  4.25810905E-03  sigma(3 1)= -5.88282474E-05
  sigma(3 3)=  4.70379192E-03  sigma(2 1)=  1.34735220E-04

 Integrated electronic density in atomic spheres:
 ------------------------------------------------
 Atom  Sphere_radius  Integrated_density
    1        2.00000          0.47892797
    2        2.00000          0.44581129
    3        2.00000          5.65301083
    4        2.00000          5.18583655
    5        2.00000          5.20887233
    6        2.00000          5.40511832

---OUTPUT-----------------------------------------------------------------------

 Cartesian coordinates (xcart) [bohr]
 -2.41321016021454E-01  7.46038339885829E-01  1.30352820638118E+00
  3.72667723094375E+00  5.82942248008324E+00  5.53069885916126E+00
 -3.33570558030042E-01  4.33921221616791E+00  3.19731794904169E+00
 -2.63039250631976E+00  7.49684447348503E+00  6.38503958507899E+00
  4.53212106630862E+00  2.20225674134954E+00  9.17743460118287E+00
  5.61275917114616E+00  6.98667706144395E+00  2.00643211156956E+00
 Reduced coordinates (xred)
 -2.18584302562565E-02  1.04917386241406E-01  1.18071276410145E-01
  3.37555823703812E-01  8.19807424375574E-01  5.00960907899483E-01
 -3.02142303991957E-02  6.10235130994459E-01  2.89607397434425E-01
 -2.38256294846937E-01  1.05430148179349E+00  5.78345577831803E-01
  4.10511499885324E-01  3.09709312218821E-01  8.31275773111597E-01
  5.08393785631811E-01  9.82555261049543E-01  1.81739067312552E-01
 Cartesian forces (fcart) [Ha/bohr]; max,rms= 8.94016E-02 5.17618E-02 (free atoms)
 -2.78380491216664E-03 -2.32147997739839E-02 -5.32852365556336E-02
  6.10379535060223E-02 -4.79812735564628E-02  6.19218878936144E-02
 -5.02784181863730E-03 -1.92922539086515E-02  8.53470561434804E-02
  7.98235076761300E-02 -1.53051982916508E-02 -4.50066621941609E-02
 -7.88699784227268E-02  1.63919596376341E-02 -2.94403433214483E-02
 -5.41798360286216E-02  8.94015658931149E-02 -1.95367019658520E-02
 Reduced forces (fred)
  3.07337087766073E-02  1.65073981583138E-01  5.88278630889723E-01
 -6.73870025580980E-01  3.41181485281267E-01 -6.83628820792222E-01
  5.55082813287302E-02  1.37181849398628E-01 -9.42246907098448E-01
 -8.81265934880500E-01  1.08831006320097E-01  4.96881675449708E-01
  8.70738799787092E-01 -1.16558663855751E-01  3.25026704985772E-01
  5.98155170569050E-01 -6.35709658727379E-01  2.15688716565468E-01
 Scale of Primitive Cell (acell) [bohr]
  1.10401805249662E+01  7.11072174605319E+00  1.10401805249662E+01
 Real space primitive translations (rprimd) [bohr]
  1.10401805249662E+01  0.00000000000000E+00  0.00000000000000E+00
  0.00000000000000E+00  7.11072174605319E+00  0.00000000000000E+00
  0.00000000000000E+00  0.00000000000000E+00  1.10401805249662E+01
 Unitary Cell Volume (ucvol) [Bohr^3]=  8.66694487070176E+02
 Angles (23,13,12)= [degrees]
  9.00000000000000E+01  9.00000000000000E+01  9.00000000000000E+01
 Lengths [Bohr]
  1.10401805249662E+01  7.11072174605319E+00  1.10401805249662E+01
 Stress tensor in cartesian coordinates (strten) [Ha/bohr^3]
  4.90051793045916E-03  1.34735219991734E-04 -5.88282473905918E-05
  1.34735219991734E-04  4.25810904584357E-03  4.82718292270172E-05
 -5.88282473905918E-05  4.82718292270172E-05  4.70379191514691E-03
 Total energy (etotal) [Ha]= -6.80700503443131E+01

 Difference of energy with previous step (new-old):
           Absolute (Ha)= 6.22091E-01
           Relative     = 9.09741E-03

--- Iteration: (10/10) Internal Cycle: (1/1)
--------------------------------------------------------------------------------

---SELF-CONSISTENT-FIELD CONVERGENCE--------------------------------------------

     iter   Etot(hartree)      deltaE(h)  residm     vres2
 ETOT  1  -62.934478503813    -6.293E+01 6.676E+01 5.969E+03
 ETOT  2  -65.554375788560    -2.620E+00 1.779E-02 2.245E+03
 ETOT  3  -68.356384628844    -2.802E+00 2.587E-02 3.128E+02
 ETOT  4  -68.658074973183    -3.017E-01 1.481E-02 3.571E+01
 ETOT  5  -68.679818380887    -2.174E-02 7.233E-03 2.296E+01
 ETOT  6  -68.698785813991    -1.897E-02 1.514E-03 1.984E+00
 ETOT  7  -68.700759647605    -1.974E-03 1.080E-03 3.649E-01
 ETOT  8  -68.701046176300    -2.865E-04 5.603E-04 1.080E-01
 ETOT  9  -68.701130657745    -8.448E-05 1.408E-04 3.965E-03
 ETOT 10  -68.701134112884    -3.455E-06 1.390E-04 4.963E-04

 At SCF step   10, etot is converged : 
  for the second time, diff in etot=  3.455E-06 < toldfe=  1.000E-04

 Cartesian components of stress tensor (hartree/bohr^3)
  sigma(1 1)=  4.76748663E-04  sigma(3 2)=  1.12480743E-04
  sigma(2 2)= -4.32493357E-04  sigma(3 1)= -9.01932725E-05
  sigma(3 3)= -4.86686180E-04  sigma(2 1)=  9.20658550E-05

 Integrated electronic density in atomic spheres:
 ------------------------------------------------
 Atom  Sphere_radius  Integrated_density
    1        2.00000          0.47281931
    2        2.00000          0.51015956
    3        2.00000          5.56792943
    4        2.00000          5.45392186
    5        2.00000          5.58606678
    6        2.00000          5.57745393

---OUTPUT-----------------------------------------------------------------------

 Cartesian coordinates (xcart) [bohr]
 -5.79230816966784E-01  2.24584053512773E-01  3.94837902130629E-01
  3.83132995446259E+00  5.14427688823756E+00  5.24296916494881E+00
 -6.52524300314057E-01  3.10617909644726E+00  3.37543567786489E+00
 -1.16817750817321E+00  7.19170013663885E+00  6.09956168690685E+00
  3.91195703064438E+00  2.16942724723988E+00  8.18732977829024E+00
  4.45198502969720E+00  7.51062222685719E+00  2.04665543879214E+00
 Reduced coordinates (xred)
 -5.71305898093445E-02  3.43920809783803E-02  3.89435809819846E-02
  3.77891047301112E-01  7.87778048121364E-01  5.17123592135997E-01
 -6.43596594827061E-02  4.75670295140927E-01  3.32925364968944E-01
 -1.15219473980048E-01  1.10131387158993E+00  6.01610871770056E-01
  3.85843442584550E-01  3.32219124184323E-01  8.07531238836268E-01
  4.39107387104989E-01  1.15015257665836E+00  2.01865351306753E-01
 Cartesian forces (fcart) [Ha/bohr]; max,rms= 4.79017E-02 1.87136E-02 (free atoms)
  1.49041337247765E-02 -2.02730901639664E-02 -1.39913680197293E-02
 -7.74291984117493E-03 -3.56928855409434E-02  5.86893245714652E-03
  4.01629309070715E-03  1.85154856171494E-02  9.51537452202141E-03
  5.87584920069999E-03  6.73807484754271E-03  1.95354386331951E-02
 -3.54699865894372E-03 -1.71893220037500E-02 -2.02415557111868E-02
 -1.35063575160650E-02  4.79017372439678E-02 -6.86821881446981E-04
 Reduced forces (fred)
 -1.51108776968595E-01  1.32385497961454E-01  1.41854504838757E-01
  7.85032641931259E-02  2.33078449698686E-01 -5.95034385820366E-02
 -4.07200544554477E-02 -1.20908147874822E-01 -9.64736785761992E-02
 -5.95735654795988E-02 -4.40003663367994E-02 -1.98064261494098E-01
  3.59620115573184E-02  1.12248154311024E-01  2.05223381911448E-01
  1.36937121153197E-01 -3.12803587759542E-01  6.96349190212856E-03
 Scale of Primitive Cell (acell) [bohr]
  1.01387158595734E+01  6.53010946484896E+00  1.01387158595734E+01
 Real space primitive translations (rprimd) [bohr]
  1.01387158595734E+01  0.00000000000000E+00  0.00000000000000E+00
  0.00000000000000E+00  6.53010946484896E+00  0.00000000000000E+00
  0.00000000000000E+00  0.00000000000000E+00  1.01387158595734E+01
 Unitary Cell Volume (ucvol) [Bohr^3]=  6.71253194387451E+02
 Angles (23,13,12)= [degrees]
  9.00000000000000E+01  9.00000000000000E+01  9.00000000000000E+01
 Lengths [Bohr]
  1.01387158595734E+01  6.53010946484896E+00  1.01387158595734E+01
 Stress tensor in cartesian coordinates (strten) [Ha/bohr^3]
  4.76748662526678E-04  9.20658550128498E-05 -9.01932724549124E-05
  9.20658550128498E-05 -4.32493356834334E-04  1.12480743263108E-04
 -9.01932724549124E-05  1.12480743263108E-04 -4.86686179662568E-04
 Total energy (etotal) [Ha]= -6.87011341128844E+01

 Difference of energy with previous step (new-old):
           Absolute (Ha)=-6.31084E-01
           Relative     =-9.22831E-03

 fconv : WARNING -
  ntime=   10 was not enough Broyd/MD steps to converge gradients: 
  max grad (force/stress) = 4.7902E-02 > tolmxf= 5.0000E-05 ha/bohr (free atoms)

================================================================================

 ----iterations are completed or convergence reached----

 Mean square residual over all n,k,spin=   1.4359E-06; max=  1.3901E-04
 reduced coordinates (array xred) for    6 atoms
      -0.057130589809      0.034392080978      0.038943580982
       0.377891047301      0.787778048121      0.517123592136
      -0.064359659483      0.475670295141      0.332925364969
      -0.115219473980      1.101313871590      0.601610871770
       0.385843442585      0.332219124184      0.807531238836
       0.439107387105      1.150152576658      0.201865351307
 rms dE/dt=  1.6594E-01; max dE/dt=  2.6050E-01; dE/dt below (all hartree)
    1      -0.129508292137     -0.001175474349      0.197126620890
    2       0.100103749025      0.099517477388     -0.004231322531
    3      -0.019119569624     -0.254469120185     -0.041201562525
    4      -0.037973080648     -0.177561338647     -0.142792145443
    5       0.057562496389     -0.021312818000      0.260495497962
    6       0.158537605985     -0.446364560070      0.062235607953

 cartesian coordinates (angstrom) at end:
    1     -0.30651574685179     0.11884476253172     0.20893921889502
    2      2.02745249048977     2.72223408393160     2.77445978743105
    3     -0.34530098777734     1.64371918363857     1.78620362978764
    4     -0.61817291291272     3.80568380332287     3.22774902709988
    5      2.07011850160042     1.14801145493349     4.33254831788141
    6      2.35588901069963     3.97445010478230     1.08304341204556

 cartesian forces (hartree/bohr) at end:
    1      0.01490413372478    -0.02027309016397    -0.01399136801973
    2     -0.00774291984117    -0.03569288554094     0.00586893245715
    3      0.00401629309071     0.01851548561715     0.00951537452202
    4      0.00587584920070     0.00673807484754     0.01953543863320
    5     -0.00354699865894    -0.01718932200375    -0.02024155571119
    6     -0.01350635751607     0.04790173724397    -0.00068682188145
 frms,max,avg= 1.8713587E-02 4.7901737E-02  -2.130E-03  2.045E-02 -5.452E-03 h/b

 cartesian forces (eV/Angstrom) at end:
    1      0.76640130622082    -1.04248412351315    -0.71946501045619
    2     -0.39815691336523    -1.83540181579923     0.30179261568229
    3      0.20652607710884     0.95210447143978     0.48930018996907
    4      0.30214828890638     0.34648571060428     1.00455255988399
    5     -0.18239398918294    -0.88391040230833    -1.04086255688958
    6     -0.69452476968787     2.46320615957665    -0.03531779818957
 frms,max,avg= 9.6229126E-01 2.4632062E+00  -1.096E-01  1.052E+00 -2.803E-01 e/A
 length scales= 10.138715859573  6.530109464849 10.138715859573 bohr
              =  5.365177357256  3.455585098396  5.365177357256 angstroms
 prteigrs : about to open file RutileGeom3_o_EIG
 Fermi (or HOMO) energy (hartree) =   0.02776   Average Vxc (hartree)=  -0.37480
 Eigenvalues (hartree) for nkpt=  16  k points:
 kpt#   1, nband= 17, wtk=  0.06250, kpt= -0.2500  0.5000  0.0000 (reduced coord)
  -0.94399   -0.91129   -0.89178   -0.88906   -0.19593   -0.17122   -0.15384   -0.13710
  -0.12137   -0.09575   -0.06225   -0.05068   -0.03770   -0.02247   -0.00310    0.01307
   0.14125
 prteigrs : prtvol=0 or 1, do not print more k-points.


--------------------------------------------------------------------------------
 Components of total free energy (in Hartree) :

    Kinetic energy  =  3.17684392586967E+01
    Hartree energy  =  1.76540686947491E+01
    XC energy       = -1.82580100885408E+01
    Ewald energy    = -4.93336107862612E+01
    PspCore energy  =  6.65783512996229E+00
    Loc. psp. energy= -6.82385150876757E+01
    NL   psp  energy=  1.10486587661853E+01
    >>>>>>>>> Etotal= -6.87011341128844E+01

 Other information on the energy :
    Total energy(eV)= -1.86945293196304E+03 ; Band energy (Ha)=  -9.2197306140E+00
--------------------------------------------------------------------------------
 rms coord change=  6.1032E-02   atom, delta coord (reduced):
     1       -0.057130589809      0.034392080978      0.038943580982
     2        0.055846996062      0.011472848787      0.017123592136
     3       -0.064359659483     -0.005630343374      0.022930894413
     4       -0.115219473980      0.030004111435     -0.088394657674
     5        0.063799391345      0.037214563364     -0.002463231719
     6        0.117063335865     -0.107453261191      0.011859821862

 Cartesian components of stress tensor (hartree/bohr^3)
  sigma(1 1)=  4.76748663E-04  sigma(3 2)=  1.12480743E-04
  sigma(2 2)= -4.32493357E-04  sigma(3 1)= -9.01932725E-05
  sigma(3 3)= -4.86686180E-04  sigma(2 1)=  9.20658550E-05

-Cartesian components of stress tensor (GPa)         [Pressure=  4.3389E+00 GPa]
- sigma(1 1)=  1.40264276E+01  sigma(3 2)=  3.30929716E+00
- sigma(2 2)= -1.27243917E+01  sigma(3 1)= -2.65357724E+00
- sigma(3 3)= -1.43187993E+01  sigma(2 1)=  2.70867051E+00

== END DATASET(S) ==============================================================
================================================================================
  
 -outvars: echo values of variables after computation  --------
            acell      1.0138715860E+01  6.5301094648E+00  1.0138715860E+01 Bohr
              amu      4.78800000E+01  1.59994000E+01
           diemac      1.20000000E+01
          dilatmx      1.20000000E+00
             ecut      8.00000000E+00 Hartree
           ecutsm      5.00000000E-01 Hartree
           etotal     -6.8701134113E+01
            fcart      1.4904133725E-02 -2.0273090164E-02 -1.3991368020E-02
                      -7.7429198412E-03 -3.5692885541E-02  5.8689324571E-03
                       4.0162930907E-03  1.8515485617E-02  9.5153745220E-03
                       5.8758492007E-03  6.7380748475E-03  1.9535438633E-02
                      -3.5469986589E-03 -1.7189322004E-02 -2.0241555711E-02
                      -1.3506357516E-02  4.7901737244E-02 -6.8682188145E-04
-          fftalg         112
           getwfk          -1
           ionmov           2
              kpt     -2.50000000E-01  5.00000000E-01  0.00000000E+00
                       5.00000000E-01 -2.50000000E-01  0.00000000E+00
                      -2.50000000E-01 -2.50000000E-01  2.50000000E-01
                      -2.50000000E-01  0.00000000E+00  0.00000000E+00
                      -2.50000000E-01  2.50000000E-01  2.50000000E-01
                       5.00000000E-01  5.00000000E-01  2.50000000E-01
                      -2.50000000E-01  5.00000000E-01  5.00000000E-01
                       0.00000000E+00 -2.50000000E-01  0.00000000E+00
                       2.50000000E-01 -2.50000000E-01  2.50000000E-01
                       5.00000000E-01 -2.50000000E-01  5.00000000E-01
                      -2.50000000E-01 -2.50000000E-01 -2.50000000E-01
                       5.00000000E-01  0.00000000E+00  2.50000000E-01
                      -2.50000000E-01  0.00000000E+00  5.00000000E-01
                       0.00000000E+00  5.00000000E-01  2.50000000E-01
                       0.00000000E+00 -2.50000000E-01  5.00000000E-01
                       0.00000000E+00  0.00000000E+00  2.50000000E-01
         kptrlatt        2   -2    2      0    4    0     -2   -2    2
          kptrlen      2.23644000E+01
P           mkmem          16
            natom           6
            nband          17
            ngfft          30      18      30
             nkpt          16
            nstep          10
             nsym           1
            ntime          10
           ntypat           2
              occ      2.000000  2.000000  2.000000  2.000000  2.000000  2.000000
                       2.000000  2.000000  2.000000  2.000000  2.000000  2.000000
                       2.000000  2.000000  2.000000  2.000000  0.000000
          optcell           1
           shiftk      5.00000000E-01  0.00000000E+00  5.00000000E-01
          spgroup           1
           strten      4.7674866253E-04 -4.3249335683E-04 -4.8668617966E-04
                       1.1248074326E-04 -9.0193272455E-05  9.2065855013E-05
           toldfe      1.00000000E-04 Hartree
            typat      1  1  2  2  2  2
              wtk        0.06250    0.06250    0.06250    0.06250    0.06250    0.06250
                         0.06250    0.06250    0.06250    0.06250    0.06250    0.06250
                         0.06250    0.06250    0.06250    0.06250
           xangst     -3.0651574685E-01  1.1884476253E-01  2.0893921890E-01
                       2.0274524905E+00  2.7222340839E+00  2.7744597874E+00
                      -3.4530098778E-01  1.6437191836E+00  1.7862036298E+00
                      -6.1817291291E-01  3.8056838033E+00  3.2277490271E+00
                       2.0701185016E+00  1.1480114549E+00  4.3325483179E+00
                       2.3558890107E+00  3.9744501048E+00  1.0830434120E+00
            xcart     -5.7923081697E-01  2.2458405351E-01  3.9483790213E-01
                       3.8313299545E+00  5.1442768882E+00  5.2429691649E+00
                      -6.5252430031E-01  3.1061790964E+00  3.3754356779E+00
                      -1.1681775082E+00  7.1917001366E+00  6.0995616869E+00
                       3.9119570306E+00  2.1694272472E+00  8.1873297783E+00
                       4.4519850297E+00  7.5106222269E+00  2.0466554388E+00
             xred     -5.7130589809E-02  3.4392080978E-02  3.8943580982E-02
                       3.7789104730E-01  7.8777804812E-01  5.1712359214E-01
                      -6.4359659483E-02  4.7567029514E-01  3.3292536497E-01
                      -1.1521947398E-01  1.1013138716E+00  6.0161087177E-01
                       3.8584344258E-01  3.3221912418E-01  8.0753123884E-01
                       4.3910738710E-01  1.1501525767E+00  2.0186535131E-01
            znucl       22.00000    8.00000

================================================================================

- Total cpu        time (s,m,h):         87.1        1.45      0.024
- Total wall clock time (s,m,h):         92.4        1.54      0.026
-
- For major independent code sections, cpu and wall times (sec),
-  as well as % of the time and number of calls for node 0-
-<BEGIN_TIMER mpi_nprocs = 1, omp_nthreads = 1, mpi_rank = 0>
- cpu_time =           87.1, wall_time =           92.4
-
- routine                        cpu     %       wall     %      number of calls  Gflops    Speedup Efficacity
-                                                                  (-1=no count)
- fourwf%(pot)                  42.484  48.8     42.551  46.0         141230      -1.00        1.00       1.00
- projbd                        11.766  13.5     11.754  12.7         225884      -1.00        1.00       1.00
- nonlop(apply)                 11.484  13.2     12.184  13.2         141230      -1.00        0.94       0.94
- vtowfk(ssdiag)                 4.266   4.9      6.215   6.7             -1      -1.00        0.69       0.69
- fourwf%(den)                   3.375   3.9      3.466   3.7          21504      -1.00        0.97       0.97
- getghc-other                   2.141   2.5      2.322   2.5             -1      -1.00        0.92       0.92
- vtowfk(contrib)                0.906   1.0      2.341   2.5           1344      -1.00        0.39       0.39
- pspini                         0.688   0.8      0.719   0.8              1      -1.00        0.96       0.96
- others (105)                   1.422   1.6      2.165   2.3             -1      -1.00        0.66       0.66
-<END_TIMER>
-
- subtotal                      78.531  90.2     83.717  90.6                                  0.94       0.94

- For major independent code sections, cpu and wall times (sec),
- as well as % of the total time and number of calls 

-<BEGIN_TIMER mpi_nprocs = 1, omp_nthreads = 1, mpi_rank = world>
- cpu_time =          87.1, wall_time =          92.4
-
- routine                         cpu     %       wall     %      number of calls Gflops    Speedup Efficacity
-                                                                  (-1=no count)
- fourwf%(pot)                  42.484  48.8     42.551  46.0         141230      -1.00        1.00       1.00
- projbd                        11.766  13.5     11.754  12.7         225884      -1.00        1.00       1.00
- nonlop(apply)                 11.484  13.2     12.184  13.2         141230      -1.00        0.94       0.94
- vtowfk(ssdiag)                 4.266   4.9      6.215   6.7             -1      -1.00        0.69       0.69
- fourwf%(den)                   3.375   3.9      3.466   3.7          21504      -1.00        0.97       0.97
- getghc-other                   2.141   2.5      2.322   2.5             -1      -1.00        0.92       0.92
- vtowfk(contrib)                0.906   1.0      2.341   2.5           1344      -1.00        0.39       0.39
- pspini                         0.688   0.8      0.719   0.8              1      -1.00        0.96       0.96
- others (105)                   1.422   1.6      2.165   2.3             -1      -1.00        0.66       0.66
-<END_TIMER>

- subtotal                      78.531  90.2     83.717  90.6                                  0.94       0.94

================================================================================

 Suggested references for the acknowledgment of ABINIT usage.

 The users of ABINIT have little formal obligations with respect to the ABINIT group
 (those specified in the GNU General Public License, http://www.gnu.org/copyleft/gpl.txt).
 However, it is common practice in the scientific literature,
 to acknowledge the efforts of people that have made the research possible.
 In this spirit, please find below suggested citations of work written by ABINIT developers,
 corresponding to implementations inside of ABINIT that you have used in the present run.
 Note also that it will be of great value to readers of publications presenting these results,
 to read papers enabling them to understand the theoretical formalism and details
 of the ABINIT implementation.
 For information on why they are suggested, see also https://www.abinit.org/about/?text=acknowledgments.
-
- [1] Recent developments in the ABINIT software package.
- Computer Phys. Comm. 205, 106 (2016).
- X.Gonze, F.Jollet, F.Abreu Araujo, D.Adams, B.Amadon, T.Applencourt,
- C.Audouze, J.-M.Beuken, J.Bieder, A.Bokhanchuk, E.Bousquet, F.Bruneval
- D.Caliste, M.Cote, F.Dahm, F.Da Pieve, M.Delaveau, M.Di Gennaro,
- B.Dorado, C.Espejo, G.Geneste, L.Genovese, A.Gerossier, M.Giantomassi,
- Y.Gillet, D.R.Hamann, L.He, G.Jomard, J.Laflamme Janssen, S.Le Roux,
- A.Levitt, A.Lherbier, F.Liu, I.Lukacevic, A.Martin, C.Martins,
- M.J.T.Oliveira, S.Ponce, Y.Pouillon, T.Rangel, G.-M.Rignanese,
- A.H.Romero, B.Rousseau, O.Rubel, A.A.Shukri, M.Stankovski, M.Torrent,
- M.J.Van Setten, B.Van Troeye, M.J.Verstraete, D.Waroquier, J.Wiktor,
- B.Xue, A.Zhou, J.W.Zwanziger.
- Comment : the fourth generic paper describing the ABINIT project.
- Note that a version of this paper, that is not formatted for Computer Phys. Comm. 
- is available at https://www.abinit.org/about/ABINIT16.pdf .
- The licence allows the authors to put it on the Web.
-
- [2] ABINIT : First-principles approach of materials and nanosystem properties.
- Computer Phys. Comm. 180, 2582-2615 (2009).
- X. Gonze, B. Amadon, P.-M. Anglade, J.-M. Beuken, F. Bottin, P. Boulanger, F. Bruneval,
- D. Caliste, R. Caracas, M. Cote, T. Deutsch, L. Genovese, Ph. Ghosez, M. Giantomassi
- S. Goedecker, D.R. Hamann, P. Hermet, F. Jollet, G. Jomard, S. Leroux, M. Mancini, S. Mazevet,
- M.J.T. Oliveira, G. Onida, Y. Pouillon, T. Rangel, G.-M. Rignanese, D. Sangalli, R. Shaltaf,
- M. Torrent, M.J. Verstraete, G. Zerah, J.W. Zwanziger
- Comment : the third generic paper describing the ABINIT project.
- Note that a version of this paper, that is not formatted for Computer Phys. Comm. 
- is available at https://www.abinit.org/about/ABINIT_CPC_v10.pdf .
- The licence allows the authors to put it on the Web.
-
- [3] A brief introduction to the ABINIT software package.
- Z. Kristallogr. 220, 558-562 (2005).
- X. Gonze, G.-M. Rignanese, M. Verstraete, J.-M. Beuken, Y. Pouillon, R. Caracas, F. Jollet,
- M. Torrent, G. Zerah, M. Mikami, Ph. Ghosez, M. Veithen, J.-Y. Raty, V. Olevano, F. Bruneval,
- L. Reining, R. Godby, G. Onida, D.R. Hamann, and D.C. Allan.
- Comment : the second generic paper describing the ABINIT project. Note that this paper
- should be cited especially if you are using the GW part of ABINIT, as several authors
- of this part are not in the list of authors of the first or third paper.
- The .pdf of the latter paper is available at https://www.abinit.org/about/zfk_0505-06_558-562.pdf.
- Note that it should not redistributed (Copyright by Oldenburg Wissenshaftverlag,
- the licence allows the authors to put it on the Web).
-
- And optionally:
-
- [4] First-principles computation of material properties : the ABINIT software project. 
- X. Gonze, J.-M. Beuken, R. Caracas, F. Detraux, M. Fuchs, G.-M. Rignanese, L. Sindic,
- M. Verstraete, G. Zerah, F. Jollet, M. Torrent, A. Roy, M. Mikami, Ph. Ghosez, J.-Y. Raty, D.C. Allan.
- Computational Materials Science 25, 478-492 (2002). http://dx.doi.org/10.1016/S0927-0256(02)00325-7
- Comment : the original paper describing the ABINIT project.
-
- Proc.   0 individual time (sec): cpu=         87.1  wall=         92.5

================================================================================

 Calculation completed.
.Delivered   3 WARNINGs and   7 COMMENTs to log file.
+Overall time at end (sec) : cpu=         87.1  wall=         92.5
