
.Version 8.6.3 of ABINIT 
.(sequential version, prepared for a x86_64_linux_gnu5.4 computer) 

.Copyright (C) 1998-2017 ABINIT group . 
 ABINIT comes with ABSOLUTELY NO WARRANTY.
 It is free software, and you are welcome to redistribute it
 under certain conditions (GNU General Public License,
 see ~abinit/COPYING or http://www.gnu.org/copyleft/gpl.txt).

 ABINIT is a project of the Universite Catholique de Louvain,
 Corning Inc. and other collaborators, see ~abinit/doc/developers/contributors.txt .
 Please read ~abinit/doc/users/acknowledgments.html for suggested
 acknowledgments of the ABINIT effort.
 For more information, see https://www.abinit.org .

.Starting date : Sat 21 Apr 2018.
- ( at 18h49 )
  
- input  file    -> RutileGeom3.in
- output file    -> RutileGeom3.out
- root for input  files -> RutileGeom3_i
- root for output files -> RutileGeom3_o


 Symmetries : space group P-4 2_1 m (#113); Bravais tP (primitive tetrag.)
================================================================================
 Values of the parameters that define the memory need of the present run
     intxc =       0    ionmov =       2      iscf =       7    lmnmax =       2
     lnmax =       2     mgfft =      30  mpssoang =       3    mqgrid =    3001
     natom =       6  nloc_mem =       1    nspden =       1   nspinor =       1
    nsppol =       1      nsym =       8    n1xccc =    2501    ntypat =       2
    occopt =       1   xclevel =       1
-    mband =          17        mffmem =           1         mkmem =           8
       mpw =         794          nfft =       16200          nkpt =           8
================================================================================
P This job should need less than                       7.286 Mbytes of memory.
  Rough estimation (10% accuracy) of disk space for files :
_ WF disk file :      1.650 Mbytes ; DEN or POT disk file :      0.126 Mbytes.
================================================================================

--------------------------------------------------------------------------------
------------- Echo of variables that govern the present computation ------------
--------------------------------------------------------------------------------
-
- outvars: echo of selected default values                                      
-   iomode0 =  0 , fftalg0 =112 , wfoptalg0 =  0
-
- outvars: echo of global parameters not present in the input file              
-  max_nthreads =    0
-
 -outvars: echo values of preprocessed input variables --------
            acell      5.5911000000E+00  8.6808000000E+00  8.6808000000E+00 Bohr
              amu      4.78800000E+01  1.59994000E+01
           diemac      1.20000000E+01
          dilatmx      1.20000000E+00
             ecut      8.00000000E+00 Hartree
           ecutsm      5.00000000E-01 Hartree
-          fftalg         112
           getwfk          -1
           ionmov           2
              kpt     -2.50000000E-01  5.00000000E-01  0.00000000E+00
                       5.00000000E-01 -2.50000000E-01  0.00000000E+00
                      -2.50000000E-01 -2.50000000E-01  2.50000000E-01
                      -2.50000000E-01  0.00000000E+00  0.00000000E+00
                       5.00000000E-01  5.00000000E-01  2.50000000E-01
                      -2.50000000E-01  5.00000000E-01  5.00000000E-01
                       0.00000000E+00 -2.50000000E-01  0.00000000E+00
                       0.00000000E+00  5.00000000E-01  2.50000000E-01
         kptrlatt        4    0    0     -2    2    2     -2   -2    2
          kptrlen      2.23644000E+01
P           mkmem           8
            natom           6
            nband          17
            ngfft          18      30      30
             nkpt           8
            nstep          10
             nsym           8
            ntime          10
           ntypat           2
              occ      2.000000  2.000000  2.000000  2.000000  2.000000  2.000000
                       2.000000  2.000000  2.000000  2.000000  2.000000  2.000000
                       2.000000  2.000000  2.000000  2.000000  0.000000
          optcell           1
           shiftk      0.00000000E+00  5.00000000E-01  5.00000000E-01
          spgroup         113
           symrel      1  0  0   0  1  0   0  0  1      -1  0  0   0 -1  0   0  0  1
                       1  0  0   0 -1  0   0  0 -1      -1  0  0   0  1  0   0  0 -1
                       1  0  0   0  0  1   0  1  0      -1  0  0   0  0 -1   0  1  0
                       1  0  0   0  0 -1   0 -1  0      -1  0  0   0  0  1   0 -1  0
            tnons      0.0000000  0.0000000  0.0000000    -0.4999911  0.5000000  0.5000000
                       0.0000000  0.0000000  0.0000000    -0.4999911  0.5000000  0.5000000
                       0.0000000  0.0000000  0.0000000    -0.4999911  0.5000000  0.5000000
                       0.0000000  0.0000000  0.0000000    -0.4999911  0.5000000  0.5000000
           toldfe      1.00000000E-04 Hartree
            typat      1  1  2  2  2  2
              wtk        0.12500    0.12500    0.25000    0.06250    0.12500    0.06250
                         0.12500    0.12500
           xangst      0.0000000000E+00  0.0000000000E+00  0.0000000000E+00
                       1.4793678043E+00  2.2968407562E+00  2.2968407562E+00
                       0.0000000000E+00  1.4240158683E+00  1.4240158683E+00
                       0.0000000000E+00  3.1696656440E+00  3.1696656440E+00
                       1.4793678043E+00  8.7282488785E-01  3.7208566245E+00
                       1.4793678043E+00  3.7208566245E+00  8.7282488785E-01
            xcart      0.0000000000E+00  0.0000000000E+00  0.0000000000E+00
                       2.7956000000E+00  4.3404000000E+00  4.3404000000E+00
                       0.0000000000E+00  2.6910000000E+00  2.6910000000E+00
                       0.0000000000E+00  5.9898000000E+00  5.9898000000E+00
                       2.7956000000E+00  1.6494000000E+00  7.0314000000E+00
                       2.7956000000E+00  7.0314000000E+00  1.6494000000E+00
             xred      0.0000000000E+00  0.0000000000E+00  0.0000000000E+00
                       5.0000894278E-01  5.0000000000E-01  5.0000000000E-01
                       0.0000000000E+00  3.0999447056E-01  3.0999447056E-01
                       0.0000000000E+00  6.9000552944E-01  6.9000552944E-01
                       5.0000894278E-01  1.9000552944E-01  8.0999447056E-01
                       5.0000894278E-01  8.0999447056E-01  1.9000552944E-01
            znucl       22.00000    8.00000

================================================================================

 chkinp: Checking input parameters for consistency.

 chkinp: WARNING -
   Chksymbreak=1 . Found potentially symmetry-breaking value of tnons, 
   which is neither a rational fraction in 1/8th nor in 1/12th :
   for the symmetry number    2
   symrel is  -1  0  0  0 -1  0  0  0  1
   tnons is    -4.999911E-01    5.000000E-01    5.000000E-01
   Please, read the description of the input variable chksymbreak,
   then, if you feel confident, you might switch it to zero, or consult with the forum.

 chkinp: WARNING -
   Chksymbreak=1 . Found potentially symmetry-breaking value of tnons, 
   which is neither a rational fraction in 1/8th nor in 1/12th :
   for the symmetry number    4
   symrel is  -1  0  0  0  1  0  0  0 -1
   tnons is    -4.999911E-01    5.000000E-01    5.000000E-01
   Please, read the description of the input variable chksymbreak,
   then, if you feel confident, you might switch it to zero, or consult with the forum.

 chkinp: WARNING -
   Chksymbreak=1 . Found potentially symmetry-breaking value of tnons, 
   which is neither a rational fraction in 1/8th nor in 1/12th :
   for the symmetry number    6
   symrel is  -1  0  0  0  0 -1  0  1  0
   tnons is    -4.999911E-01    5.000000E-01    5.000000E-01
   Please, read the description of the input variable chksymbreak,
   then, if you feel confident, you might switch it to zero, or consult with the forum.

 chkinp: WARNING -
   Chksymbreak=1 . Found potentially symmetry-breaking value of tnons, 
   which is neither a rational fraction in 1/8th nor in 1/12th :
   for the symmetry number    8
   symrel is  -1  0  0  0  0  1  0 -1  0
   tnons is    -4.999911E-01    5.000000E-01    5.000000E-01
   Please, read the description of the input variable chksymbreak,
   then, if you feel confident, you might switch it to zero, or consult with the forum.

================================================================================
== DATASET  1 ==================================================================
-   nproc =    1

 Exchange-correlation functional for the present dataset will be:
  LDA: new Teter (4/93) with spin-polarized option - ixc=1
 Citation for XC functional:
  S. Goedecker, M. Teter, J. Huetter, PRB 54, 1703 (1996)

 Real(R)+Recip(G) space primitive vectors, cartesian coordinates (Bohr,Bohr^-1):
 R(1)=  5.5911000  0.0000000  0.0000000  G(1)=  0.1788557  0.0000000  0.0000000
 R(2)=  0.0000000  8.6808000  0.0000000  G(2)=  0.0000000  0.1151968  0.0000000
 R(3)=  0.0000000  0.0000000  8.6808000  G(3)=  0.0000000  0.0000000  0.1151968
 Unit cell volume ucvol=  4.2132455E+02 bohr^3
 Angles (23,13,12)=  9.00000000E+01  9.00000000E+01  9.00000000E+01 degrees

 getcut: wavevector=  0.0000  0.0000  0.0000  ngfft=  18  30  30
         ecut(hartree)=     11.520   => boxcut(ratio)=   2.10709

--- Pseudopotential description ------------------------------------------------
- pspini: atom type   1  psp file is ../../../Psps_for_tests/22ti.pspnc
- pspatm: opening atomic psp file    ../../../Psps_for_tests/22ti.pspnc
-  Troullier-Martins psp for element  Ti        Thu Oct 27 17:33:40 EDT 1994
- 22.00000   4.00000    940714                znucl, zion, pspdat
    1    1    2    0      2001   0.00000      pspcod,pspxc,lmax,lloc,mmax,r2well
    0   5.166   8.509    0   2.4203472        l,e99.0,e99.9,nproj,rcpsp
   0.00000000   0.00000000   0.00000000   0.00000000     rms, ekb1, ekb2, epsatm
    1   2.285   3.944    1   2.9934301        l,e99.0,e99.9,nproj,rcpsp
   0.00000000   0.00000000   0.00000000   0.00000000     rms, ekb1, ekb2, epsatm
    2  20.947  27.069    1   1.9326638        l,e99.0,e99.9,nproj,rcpsp
   0.00000000   0.00000000   0.00000000   0.00000000     rms, ekb1, ekb2, epsatm
    2.82741504495369    0.09256629068341    1.82586447305099   rchrg,fchrg,qchrg
  pspatm : epsatm=   66.67453488
         --- l  ekb(1:nproj) -->
             1    0.915537
             2   -8.015692
 pspatm: atomic psp has been read  and splines computed

- pspini: atom type   2  psp file is ../../../Psps_for_tests/8o.pspnc
- pspatm: opening atomic psp file    ../../../Psps_for_tests/8o.pspnc
-  Troullier-Martins psp for element  O         Thu Oct 27 17:29:57 EDT 1994
-  8.00000   6.00000    940714                znucl, zion, pspdat
    1    1    1    1      2001   0.00000      pspcod,pspxc,lmax,lloc,mmax,r2well
    0   5.480  16.893    1   1.4482335        l,e99.0,e99.9,nproj,rcpsp
   0.00000000   0.00000000   0.00000000   0.00000000     rms, ekb1, ekb2, epsatm
    1  20.911  28.075    0   1.4482335        l,e99.0,e99.9,nproj,rcpsp
   0.00000000   0.00000000   0.00000000   0.00000000     rms, ekb1, ekb2, epsatm
    0.56990156784787    3.95561236318184    0.63894027514378   rchrg,fchrg,qchrg
  pspatm : epsatm=    1.57752239
         --- l  ekb(1:nproj) -->
             0    5.670783
 pspatm: atomic psp has been read  and splines computed

   4.46909310E+03                                ecore*ucvol(ha*bohr**3)
--------------------------------------------------------------------------------

_setup2: Arith. and geom. avg. npw (full set) are     788.688     788.675

================================================================================

=== [ionmov= 2] Broyden-Fletcher-Goldfard-Shanno method (forces)            
================================================================================

--- Iteration: ( 1/10) Internal Cycle: (1/1)
--------------------------------------------------------------------------------

---SELF-CONSISTENT-FIELD CONVERGENCE--------------------------------------------

     iter   Etot(hartree)      deltaE(h)  residm     vres2
 ETOT  1  -67.914007843538    -6.791E+01 4.742E-02 3.164E+02
 ETOT  2  -68.314671644543    -4.007E-01 1.974E-03 1.019E+02
 ETOT  3  -68.471609710293    -1.569E-01 2.345E-03 5.577E-01
 ETOT  4  -68.471924032727    -3.143E-04 2.602E-04 4.825E-03
 ETOT  5  -68.471927441532    -3.409E-06 1.532E-05 1.640E-04
 ETOT  6  -68.471927602207    -1.607E-07 1.380E-05 2.222E-06

 At SCF step    6, etot is converged : 
  for the second time, diff in etot=  1.607E-07 < toldfe=  1.000E-04

 Cartesian components of stress tensor (hartree/bohr^3)
  sigma(1 1)= -5.92968615E-03  sigma(3 2)=  0.00000000E+00
  sigma(2 2)= -2.92746925E-03  sigma(3 1)=  0.00000000E+00
  sigma(3 3)= -2.92746925E-03  sigma(2 1)=  0.00000000E+00

 Integrated electronic density in atomic spheres:
 ------------------------------------------------
 Atom  Sphere_radius  Integrated_density
    1        2.00000          0.95341615
    2        2.00000          0.95341615
    3        2.00000          6.19780497
    4        2.00000          6.19780497
    5        2.00000          6.19780497
    6        2.00000          6.19780497

---OUTPUT-----------------------------------------------------------------------

 Cartesian coordinates (xcart) [bohr]
  0.00000000000000E+00  0.00000000000000E+00  0.00000000000000E+00
  2.79560000000000E+00  4.34040000000000E+00  4.34040000000000E+00
  0.00000000000000E+00  2.69100000000000E+00  2.69100000000000E+00
  0.00000000000000E+00  5.98980000000000E+00  5.98980000000000E+00
  2.79560000000000E+00  1.64940000000000E+00  7.03140000000000E+00
  2.79560000000000E+00  7.03140000000000E+00  1.64940000000000E+00
 Reduced coordinates (xred)
  0.00000000000000E+00  0.00000000000000E+00  0.00000000000000E+00
  5.00008942784067E-01  5.00000000000000E-01  5.00000000000000E-01
  0.00000000000000E+00  3.09994470555709E-01  3.09994470555709E-01
  0.00000000000000E+00  6.90005529444291E-01  6.90005529444291E-01
  5.00008942784067E-01  1.90005529444291E-01  8.09994470555709E-01
  5.00008942784067E-01  8.09994470555709E-01  1.90005529444291E-01
 Cartesian forces (fcart) [Ha/bohr]; max,rms= 6.95477E-02 4.63652E-02 (free atoms)
  7.20697062940227E-05 -2.31296463463574E-18 -0.00000000000000E+00
 -7.20697062940227E-05 -2.31296463463574E-18 -0.00000000000000E+00
  5.37867061048486E-05 -6.95477329067281E-02 -6.95477329067281E-02
  5.37867061048486E-05  6.95477329067281E-02  6.95477329067281E-02
 -5.37867061048486E-05  6.95477329067282E-02 -6.95477329067281E-02
 -5.37867061048486E-05 -6.95477329067281E-02  6.95477329067281E-02
 Reduced forces (fred)
 -4.02948934860510E-04  2.00783834003460E-17 -0.00000000000000E+00
  4.02948934860510E-04  2.00783834003460E-17  0.00000000000000E+00
 -3.00726852502819E-04  6.03729959816726E-01  6.03729959816726E-01
 -3.00726852502819E-04 -6.03729959816726E-01 -6.03729959816726E-01
  3.00726852502819E-04 -6.03729959816726E-01  6.03729959816726E-01
  3.00726852502819E-04  6.03729959816726E-01 -6.03729959816726E-01
 Scale of Primitive Cell (acell) [bohr]
  5.59110000000000E+00  8.68080000000000E+00  8.68080000000000E+00
 Real space primitive translations (rprimd) [bohr]
  5.59110000000000E+00  0.00000000000000E+00  0.00000000000000E+00
  0.00000000000000E+00  8.68080000000000E+00  0.00000000000000E+00
  0.00000000000000E+00  0.00000000000000E+00  8.68080000000000E+00
 Unitary Cell Volume (ucvol) [Bohr^3]=  4.21324545415104E+02
 Angles (23,13,12)= [degrees]
  9.00000000000000E+01  9.00000000000000E+01  9.00000000000000E+01
 Lengths [Bohr]
  5.59110000000000E+00  8.68080000000000E+00  8.68080000000000E+00
 Stress tensor in cartesian coordinates (strten) [Ha/bohr^3]
 -5.92968615324881E-03  0.00000000000000E+00  0.00000000000000E+00
  0.00000000000000E+00 -2.92746924540086E-03  0.00000000000000E+00
  0.00000000000000E+00  0.00000000000000E+00 -2.92746924540086E-03
 Total energy (etotal) [Ha]= -6.84719276022066E+01

--- Iteration: ( 2/10) Internal Cycle: (1/1)
--------------------------------------------------------------------------------

---SELF-CONSISTENT-FIELD CONVERGENCE--------------------------------------------

     iter   Etot(hartree)      deltaE(h)  residm     vres2
 ETOT  1  -65.560919750012    -6.556E+01 1.983E-02 1.765E+03
 ETOT  2  -67.430780909632    -1.870E+00 1.001E-03 6.952E+02
 ETOT  3  -68.819206034347    -1.388E+00 1.295E-02 2.152E+00
 ETOT  4  -68.821886068603    -2.680E-03 2.960E-02 2.066E-01
 ETOT  5  -68.822015317983    -1.292E-04 8.002E-04 8.467E-03
 ETOT  6  -68.822028411037    -1.309E-05 5.732E-05 5.147E-04
 ETOT  7  -68.822029065097    -6.541E-07 2.911E-06 3.004E-06

 At SCF step    7, etot is converged : 
  for the second time, diff in etot=  6.541E-07 < toldfe=  1.000E-04

 Cartesian components of stress tensor (hartree/bohr^3)
  sigma(1 1)= -3.06102880E-04  sigma(3 2)=  0.00000000E+00
  sigma(2 2)= -5.83223681E-04  sigma(3 1)=  0.00000000E+00
  sigma(3 3)= -5.83223681E-04  sigma(2 1)=  0.00000000E+00

 Integrated electronic density in atomic spheres:
 ------------------------------------------------
 Atom  Sphere_radius  Integrated_density
    1        2.00000          0.56778204
    2        2.00000          0.56778204
    3        2.00000          5.84850898
    4        2.00000          5.84850898
    5        2.00000          5.84850898
    6        2.00000          5.84850898

---OUTPUT-----------------------------------------------------------------------

 Cartesian coordinates (xcart) [bohr]
  8.05628506628429E-05 -4.96830432661594E-18  0.00000000000000E+00
  3.12497040369841E+00  4.85189984805037E+00  4.85189984805037E+00
  6.01252675277036E-05  2.93038057699317E+00  2.93038057699317E+00
  6.01252675277036E-05  6.77341911910757E+00  6.77341911910757E+00
  3.12499084128155E+00  1.92151927105720E+00  7.78228042504354E+00
  3.12499084128155E+00  7.78228042504354E+00  1.92151927105720E+00
 Reduced coordinates (xred)
  1.28900764239636E-05 -5.11995762712657E-19  0.00000000000000E+00
  4.99996052707644E-01  5.00000000000000E-01  5.00000000000000E-01
  9.62005796799352E-06  3.01982797333572E-01  3.01982797333572E-01
  9.62005796799352E-06  6.98017202666428E-01  6.98017202666428E-01
  4.99999322726099E-01  1.98017202666428E-01  8.01982797333572E-01
  4.99999322726099E-01  8.01982797333572E-01  1.98017202666428E-01
 Cartesian forces (fcart) [Ha/bohr]; max,rms= 1.02410E-02 6.82732E-03 (free atoms)
 -9.60634497678156E-06 -2.89120579329468E-19 -0.00000000000000E+00
  9.60634497678156E-06 -2.89120579329468E-19 -0.00000000000000E+00
 -2.43393407014955E-05 -1.02409646620330E-02 -1.02409646620330E-02
 -2.43393407014955E-05  1.02409646620330E-02  1.02409646620330E-02
  2.43393407014955E-05  1.02409646620330E-02 -1.02409646620330E-02
  2.43393407014955E-05 -1.02409646620330E-02  1.02409646620330E-02
 Reduced forces (fred)
  6.00395614677227E-05  2.80556818983376E-18  0.00000000000000E+00
 -6.00395614677227E-05  2.80556818983376E-18 -0.00000000000000E+00
  1.52120639604687E-04  9.93762697752146E-02  9.93762697752146E-02
  1.52120639604687E-04 -9.93762697752146E-02 -9.93762697752146E-02
 -1.52120639604687E-04 -9.93762697752147E-02  9.93762697752146E-02
 -1.52120639604687E-04  9.93762697752146E-02 -9.93762697752146E-02
 Scale of Primitive Cell (acell) [bohr]
  6.24999014847351E+00  9.70379969610074E+00  9.70379969610074E+00
 Real space primitive translations (rprimd) [bohr]
  6.24999014847351E+00  0.00000000000000E+00  0.00000000000000E+00
  0.00000000000000E+00  9.70379969610074E+00  0.00000000000000E+00
  0.00000000000000E+00  0.00000000000000E+00  9.70379969610074E+00
 Unitary Cell Volume (ucvol) [Bohr^3]=  5.88522375731314E+02
 Angles (23,13,12)= [degrees]
  9.00000000000000E+01  9.00000000000000E+01  9.00000000000000E+01
 Lengths [Bohr]
  6.24999014847351E+00  9.70379969610074E+00  9.70379969610074E+00
 Stress tensor in cartesian coordinates (strten) [Ha/bohr^3]
 -3.06102879985413E-04  0.00000000000000E+00  0.00000000000000E+00
  0.00000000000000E+00 -5.83223681034598E-04  0.00000000000000E+00
  0.00000000000000E+00  0.00000000000000E+00 -5.83223681034598E-04
 Total energy (etotal) [Ha]= -6.88220290650966E+01

 Difference of energy with previous step (new-old):
           Absolute (Ha)=-3.50101E-01
           Relative     =-5.10003E-03

--- Iteration: ( 3/10) Internal Cycle: (1/1)
--------------------------------------------------------------------------------

---SELF-CONSISTENT-FIELD CONVERGENCE--------------------------------------------

     iter   Etot(hartree)      deltaE(h)  residm     vres2
 ETOT  1  -68.717924326903    -6.872E+01 9.753E-06 5.636E+01
 ETOT  2  -68.765389397653    -4.747E-02 1.104E-05 2.800E+01
 ETOT  3  -68.827283167726    -6.189E-02 5.591E-04 1.526E-01
 ETOT  4  -68.827475350672    -1.922E-04 2.312E-06 7.454E-03
 ETOT  5  -68.827479359244    -4.009E-06 2.734E-07 7.755E-05
 ETOT  6  -68.827479428448    -6.920E-08 1.001E-08 1.784E-06

 At SCF step    6, etot is converged : 
  for the second time, diff in etot=  6.920E-08 < toldfe=  1.000E-04

 Cartesian components of stress tensor (hartree/bohr^3)
  sigma(1 1)= -6.37760435E-04  sigma(3 2)=  0.00000000E+00
  sigma(2 2)=  5.47261125E-04  sigma(3 1)=  0.00000000E+00
  sigma(3 3)=  5.47261125E-04  sigma(2 1)=  0.00000000E+00

 Integrated electronic density in atomic spheres:
 ------------------------------------------------
 Atom  Sphere_radius  Integrated_density
    1        2.00000          0.53578780
    2        2.00000          0.53578780
    3        2.00000          5.78601689
    4        2.00000          5.78601689
    5        2.00000          5.78601689
    6        2.00000          5.78601689

---OUTPUT-----------------------------------------------------------------------

 Cartesian coordinates (xcart) [bohr]
  6.75031902185576E-05 -5.89469427234499E-18  0.00000000000000E+00
  3.19459634875892E+00  4.95997960473603E+00  4.95997960473603E+00
  2.38275204065179E-05  2.97982005083849E+00  2.97982005083849E+00
  2.38275204065179E-05  6.94013915863358E+00  6.94013915863358E+00
  3.19464002442873E+00  1.98015955389755E+00  7.93979965557452E+00
  3.19464002442873E+00  7.93979965557452E+00  1.98015955389755E+00
 Reduced coordinates (xred)
  1.05651800439473E-05 -5.94225656363228E-19  0.00000000000000E+00
  4.99998377604023E-01  5.00000000000000E-01  5.00000000000000E-01
  3.72933549185771E-06  3.00386320943055E-01  3.00386320943055E-01
  3.72933549185771E-06  6.99613679056945E-01  6.99613679056945E-01
  5.00005213448576E-01  1.99613679056945E-01  8.00386320943055E-01
  5.00005213448576E-01  8.00386320943055E-01  1.99613679056945E-01
 Cartesian forces (fcart) [Ha/bohr]; max,rms= 6.49442E-04 4.32964E-04 (free atoms)
 -4.05145750935902E-06 -1.80700362080917E-20 -0.00000000000000E+00
  4.05145750935902E-06 -1.80700362080917E-20 -0.00000000000000E+00
  1.52012802968572E-06  6.49441792754658E-04  6.49441792754658E-04
  1.52012802968572E-06 -6.49441792754658E-04 -6.49441792754658E-04
 -1.52012802968572E-06 -6.49441792754658E-04  6.49441792754658E-04
 -1.52012802968572E-06  6.49441792754658E-04 -6.49441792754658E-04
 Reduced forces (fred)
  2.58856267265738E-05  1.79254022097953E-19  0.00000000000000E+00
 -2.58856267265738E-05  1.79254022097953E-19 -0.00000000000000E+00
 -9.71242242135030E-06 -6.44243609305261E-03 -6.44243609305261E-03
 -9.71242242135030E-06  6.44243609305261E-03  6.44243609305261E-03
  9.71242242135030E-06  6.44243609305261E-03 -6.44243609305261E-03
  9.71242242135030E-06 -6.44243609305261E-03  6.44243609305261E-03
 Scale of Primitive Cell (acell) [bohr]
  6.38921342918616E+00  9.91995920947206E+00  9.91995920947206E+00
 Real space primitive translations (rprimd) [bohr]
  6.38921342918616E+00  0.00000000000000E+00  0.00000000000000E+00
  0.00000000000000E+00  9.91995920947206E+00  0.00000000000000E+00
  0.00000000000000E+00  0.00000000000000E+00  9.91995920947206E+00
 Unitary Cell Volume (ucvol) [Bohr^3]=  6.28734321719821E+02
 Angles (23,13,12)= [degrees]
  9.00000000000000E+01  9.00000000000000E+01  9.00000000000000E+01
 Lengths [Bohr]
  6.38921342918616E+00  9.91995920947206E+00  9.91995920947206E+00
 Stress tensor in cartesian coordinates (strten) [Ha/bohr^3]
 -6.37760434915586E-04  0.00000000000000E+00  0.00000000000000E+00
  0.00000000000000E+00  5.47261125115424E-04  0.00000000000000E+00
  0.00000000000000E+00  0.00000000000000E+00  5.47261125115424E-04
 Total energy (etotal) [Ha]= -6.88274794284481E+01

 Difference of energy with previous step (new-old):
           Absolute (Ha)=-5.45036E-03
           Relative     =-7.91919E-05

--- Iteration: ( 4/10) Internal Cycle: (1/1)
--------------------------------------------------------------------------------

---SELF-CONSISTENT-FIELD CONVERGENCE--------------------------------------------

     iter   Etot(hartree)      deltaE(h)  residm     vres2
 ETOT  1  -68.821939626718    -6.882E+01 4.822E-05 3.373E+00
 ETOT  2  -68.824778299281    -2.839E-03 6.163E-07 1.696E+00
 ETOT  3  -68.828503191070    -3.725E-03 3.213E-05 1.017E-02
 ETOT  4  -68.828516139923    -1.295E-05 1.792E-07 1.760E-04
 ETOT  5  -68.828516244804    -1.049E-07 1.536E-08 3.788E-06

 At SCF step    5, etot is converged : 
  for the second time, diff in etot=  1.049E-07 < toldfe=  1.000E-04

 Cartesian components of stress tensor (hartree/bohr^3)
  sigma(1 1)= -5.28096713E-04  sigma(3 2)=  0.00000000E+00
  sigma(2 2)=  3.18639013E-04  sigma(3 1)=  0.00000000E+00
  sigma(3 3)=  3.18639013E-04  sigma(2 1)=  0.00000000E+00

 Integrated electronic density in atomic spheres:
 ------------------------------------------------
 Atom  Sphere_radius  Integrated_density
    1        2.00000          0.54865281
    2        2.00000          0.54865281
    3        2.00000          5.81240373
    4        2.00000          5.81240373
    5        2.00000          5.81240373
    6        2.00000          5.81240373

---OUTPUT-----------------------------------------------------------------------

 Cartesian coordinates (xcart) [bohr]
  6.37295602414996E-05 -5.86252125973230E-18  0.00000000000000E+00
  3.17733858074632E+00  4.93317963501738E+00  4.93317963501738E+00
  2.66917212600728E-05  2.96499103389653E+00  2.96499103389653E+00
  2.66917212600728E-05  6.90136823613825E+00  6.90136823613825E+00
  3.17737561858530E+00  1.96818860112086E+00  7.89817066891390E+00
  3.17737561858530E+00  7.89817066891390E+00  1.96818860112086E+00
 Reduced coordinates (xred)
  1.00287426420897E-05 -5.94192964119747E-19  0.00000000000000E+00
  4.99998914041425E-01  5.00000000000000E-01  5.00000000000000E-01
  4.20031775171976E-06  3.00515210600686E-01  3.00515210600686E-01
  4.20031775171976E-06  6.99484789399315E-01  6.99484789399315E-01
  5.00004742466315E-01  1.99484789399314E-01  8.00515210600685E-01
  5.00004742466315E-01  8.00515210600685E-01  1.99484789399314E-01
 Cartesian forces (fcart) [Ha/bohr]; max,rms= 1.08748E-03 7.24985E-04 (free atoms)
 -4.00155386902600E-06 -7.22801448323670E-20  3.61400724163434E-20
  4.00155386902600E-06 -7.22801448322070E-20  3.61400724163434E-20
 -6.32475137926607E-07 -1.08747521748059E-03 -1.08747521748059E-03
 -6.32475137926606E-07  1.08747521748059E-03  1.08747521748059E-03
  6.32475137926606E-07  1.08747521748059E-03 -1.08747521748059E-03
  6.32475137926606E-07 -1.08747521748059E-03  1.08747521748059E-03
 Reduced forces (fred)
  2.54286382108775E-05  7.13141877006279E-19 -3.56570938504717E-19
 -2.54286382108775E-05  7.13141877004702E-19 -3.56570938504717E-19
  4.01918404352886E-06  1.07294211929227E-02  1.07294211929227E-02
  4.01918404352886E-06 -1.07294211929227E-02 -1.07294211929227E-02
 -4.01918404352886E-06 -1.07294211929227E-02  1.07294211929227E-02
 -4.01918404352886E-06  1.07294211929227E-02 -1.07294211929227E-02
 Scale of Primitive Cell (acell) [bohr]
  6.35469096335492E+00  9.86635927003477E+00  9.86635927003477E+00
 Real space primitive translations (rprimd) [bohr]
  6.35469096335492E+00  0.00000000000000E+00  0.00000000000000E+00
  0.00000000000000E+00  9.86635927003477E+00  0.00000000000000E+00
  0.00000000000000E+00  0.00000000000000E+00  9.86635927003477E+00
 Unitary Cell Volume (ucvol) [Bohr^3]=  6.18597679348325E+02
 Angles (23,13,12)= [degrees]
  9.00000000000000E+01  9.00000000000000E+01  9.00000000000000E+01
 Lengths [Bohr]
  6.35469096335492E+00  9.86635927003477E+00  9.86635927003477E+00
 Stress tensor in cartesian coordinates (strten) [Ha/bohr^3]
 -5.28096713434543E-04  0.00000000000000E+00  0.00000000000000E+00
  0.00000000000000E+00  3.18639013166339E-04  0.00000000000000E+00
  0.00000000000000E+00  0.00000000000000E+00  3.18639013166339E-04
 Total energy (etotal) [Ha]= -6.88285162448039E+01

 Difference of energy with previous step (new-old):
           Absolute (Ha)=-1.03682E-03
           Relative     =-1.50639E-05

--- Iteration: ( 5/10) Internal Cycle: (1/1)
--------------------------------------------------------------------------------

---SELF-CONSISTENT-FIELD CONVERGENCE--------------------------------------------

     iter   Etot(hartree)      deltaE(h)  residm     vres2
 ETOT  1  -68.827726048377    -6.883E+01 5.051E-03 3.816E-01
 ETOT  2  -68.828052267339    -3.262E-04 1.369E-06 1.967E-01
 ETOT  3  -68.828482297089    -4.300E-04 3.632E-06 8.998E-04
 ETOT  4  -68.828483452378    -1.155E-06 1.858E-08 1.682E-05
 ETOT  5  -68.828483464530    -1.215E-08 1.585E-09 4.880E-07

 At SCF step    5, etot is converged : 
  for the second time, diff in etot=  1.215E-08 < toldfe=  1.000E-04

 Cartesian components of stress tensor (hartree/bohr^3)
  sigma(1 1)= -4.80399167E-04  sigma(3 2)=  0.00000000E+00
  sigma(2 2)=  1.43086971E-04  sigma(3 1)=  0.00000000E+00
  sigma(3 3)=  1.43086971E-04  sigma(2 1)=  0.00000000E+00

 Integrated electronic density in atomic spheres:
 ------------------------------------------------
 Atom  Sphere_radius  Integrated_density
    1        2.00000          0.55244427
    2        2.00000          0.55244427
    3        2.00000          5.81294828
    4        2.00000          5.81294828
    5        2.00000          5.81294828
    6        2.00000          5.81294828

---OUTPUT-----------------------------------------------------------------------

 Cartesian coordinates (xcart) [bohr]
  5.73704222488473E-05 -6.01149871329861E-18  1.09331525814722E-19
  3.17187570686637E+00  4.92468819883515E+00  4.92468819883515E+00
  2.58564290174539E-05  2.95818521815666E+00  2.95818521815666E+00
  2.58564290174539E-05  6.89119117951366E+00  6.89119117951366E+00
  3.17190722085960E+00  1.96650298067850E+00  7.88287341699180E+00
  3.17190722085960E+00  7.88287341699180E+00  1.96650298067850E+00
 Reduced coordinates (xred)
  9.04360952036298E-06 -6.10343078646129E-19  1.11003500526777E-20
  4.99999899174547E-01  5.00000000000000E-01  5.00000000000000E-01
  4.07588855822888E-06  3.00342387042530E-01  3.00342387042530E-01
  4.07588855822888E-06  6.99657612957471E-01  6.99657612957471E-01
  5.00004866895509E-01  1.99657612957470E-01  8.00342387042529E-01
  5.00004866895509E-01  8.00342387042529E-01  1.99657612957470E-01
 Cartesian forces (fcart) [Ha/bohr]; max,rms= 5.46228E-04 3.64154E-04 (free atoms)
 -3.16926563688349E-06 -1.80700362080917E-20 -0.00000000000000E+00
  3.16926563688349E-06 -1.80700362080917E-20 -0.00000000000000E+00
  3.77515013444809E-07 -5.46228287790326E-04 -5.46228287790326E-04
  3.77515013444809E-07  5.46228287790326E-04  5.46228287790326E-04
 -3.77515013444810E-07  5.46228287790326E-04 -5.46228287790326E-04
 -3.77515013444809E-07 -5.46228287790326E-04  5.46228287790326E-04
 Reduced forces (fred)
  2.01050374186733E-05  1.77978588133027E-19  0.00000000000000E+00
 -2.01050374186733E-05  1.77978588133027E-19 -0.00000000000000E+00
 -2.39486188317192E-06  5.38000800550190E-03  5.38000800550190E-03
 -2.39486188317192E-06 -5.38000800550190E-03 -5.38000800550190E-03
  2.39486188317192E-06 -5.38000800550190E-03  5.38000800550190E-03
  2.39486188317192E-06  5.38000800550190E-03 -5.38000800550190E-03
 Scale of Primitive Cell (acell) [bohr]
  6.34375269295623E+00  9.84937639767030E+00  9.84937639767030E+00
 Real space primitive translations (rprimd) [bohr]
  6.34375269295623E+00  0.00000000000000E+00  0.00000000000000E+00
  0.00000000000000E+00  9.84937639767030E+00  0.00000000000000E+00
  0.00000000000000E+00  0.00000000000000E+00  9.84937639767030E+00
 Unitary Cell Volume (ucvol) [Bohr^3]=  6.15408815333824E+02
 Angles (23,13,12)= [degrees]
  9.00000000000000E+01  9.00000000000000E+01  9.00000000000000E+01
 Lengths [Bohr]
  6.34375269295623E+00  9.84937639767030E+00  9.84937639767030E+00
 Stress tensor in cartesian coordinates (strten) [Ha/bohr^3]
 -4.80399166747329E-04  0.00000000000000E+00  0.00000000000000E+00
  0.00000000000000E+00  1.43086971444197E-04  0.00000000000000E+00
  0.00000000000000E+00  0.00000000000000E+00  1.43086971444197E-04
 Total energy (etotal) [Ha]= -6.88284834645299E+01

 Difference of energy with previous step (new-old):
           Absolute (Ha)= 3.27803E-05
           Relative     = 4.76260E-07

--- Iteration: ( 6/10) Internal Cycle: (1/1)
--------------------------------------------------------------------------------

---SELF-CONSISTENT-FIELD CONVERGENCE--------------------------------------------

     iter   Etot(hartree)      deltaE(h)  residm     vres2
 ETOT  1  -68.828299017951    -6.883E+01 3.679E-07 1.268E-01
 ETOT  2  -68.828406252009    -1.072E-04 2.130E-08 6.366E-02
 ETOT  3  -68.828545774160    -1.395E-04 1.218E-06 3.604E-04
 ETOT  4  -68.828546220249    -4.461E-07 6.324E-09 6.665E-06
 ETOT  5  -68.828546223972    -3.722E-09 5.984E-10 1.105E-07

 At SCF step    5, etot is converged : 
  for the second time, diff in etot=  3.722E-09 < toldfe=  1.000E-04

 Cartesian components of stress tensor (hartree/bohr^3)
  sigma(1 1)= -5.04932436E-04  sigma(3 2)=  0.00000000E+00
  sigma(2 2)=  2.51500249E-04  sigma(3 1)=  0.00000000E+00
  sigma(3 3)=  2.51500249E-04  sigma(2 1)=  0.00000000E+00

 Integrated electronic density in atomic spheres:
 ------------------------------------------------
 Atom  Sphere_radius  Integrated_density
    1        2.00000          0.55318333
    2        2.00000          0.55318333
    3        2.00000          5.80555632
    4        2.00000          5.80555632
    5        2.00000          5.80555632
    6        2.00000          5.80555632

---OUTPUT-----------------------------------------------------------------------

 Cartesian coordinates (xcart) [bohr]
  5.61760707487369E-05 -6.02479606304651E-18  9.78332726396575E-20
  3.17527120235733E+00  4.92995813182473E+00  4.92995813182473E+00
  2.59898456736528E-05  2.96118338836787E+00  2.96118338836787E+00
  2.59898456736528E-05  6.89873287528160E+00  6.89873287528160E+00
  3.17530138858240E+00  1.96877474345687E+00  7.89114152019259E+00
  3.17530138858240E+00  7.89114152019259E+00  1.96877474345687E+00
 Reduced coordinates (xred)
  8.84587143223762E-06 -6.11039272742926E-19  9.92232287005715E-21
  5.00000096912635E-01  5.00000000000000E-01  5.00000000000000E-01
  4.09254029889584E-06  3.00325409383532E-01  3.00325409383532E-01
  4.09254029889584E-06  6.99674590616469E-01  6.99674590616469E-01
  5.00004850243768E-01  1.99674590616469E-01  8.00325409383531E-01
  5.00004850243768E-01  8.00325409383531E-01  1.99674590616469E-01
 Cartesian forces (fcart) [Ha/bohr]; max,rms= 2.61108E-04 1.74075E-04 (free atoms)
 -3.00805835836283E-06 -0.00000000000000E+00  9.03501810420588E-21
  3.00805835836283E-06 -0.00000000000000E+00  9.03501810404587E-21
  4.67172398226160E-07 -2.61108193168164E-04 -2.61108193168164E-04
  4.67172398226160E-07  2.61108193168164E-04  2.61108193168164E-04
 -4.67172398226160E-07  2.61108193168164E-04 -2.61108193168164E-04
 -4.67172398226160E-07 -2.61108193168164E-04  2.61108193168164E-04
 Reduced forces (fred)
  1.91027984580344E-05 -0.00000000000000E+00 -8.90845219480269E-20
 -1.91027984580344E-05 -0.00000000000000E+00 -8.90845219464492E-20
 -2.96679755020713E-06  2.57450492039091E-03  2.57450492039091E-03
 -2.96679755020713E-06 -2.57450492039091E-03 -2.57450492039091E-03
  2.96679755020713E-06 -2.57450492039091E-03  2.57450492039091E-03
  2.96679755020713E-06  2.57450492039091E-03 -2.57450492039091E-03
 Scale of Primitive Cell (acell) [bohr]
  6.35054117381929E+00  9.85991626364946E+00  9.85991626364946E+00
 Real space primitive translations (rprimd) [bohr]
  6.35054117381929E+00  0.00000000000000E+00  0.00000000000000E+00
  0.00000000000000E+00  9.85991626364946E+00  0.00000000000000E+00
  0.00000000000000E+00  0.00000000000000E+00  9.85991626364946E+00
 Unitary Cell Volume (ucvol) [Bohr^3]=  6.17386586219854E+02
 Angles (23,13,12)= [degrees]
  9.00000000000000E+01  9.00000000000000E+01  9.00000000000000E+01
 Lengths [Bohr]
  6.35054117381929E+00  9.85991626364946E+00  9.85991626364946E+00
 Stress tensor in cartesian coordinates (strten) [Ha/bohr^3]
 -5.04932435856437E-04  0.00000000000000E+00  0.00000000000000E+00
  0.00000000000000E+00  2.51500249144453E-04  0.00000000000000E+00
  0.00000000000000E+00  0.00000000000000E+00  2.51500249144453E-04
 Total energy (etotal) [Ha]= -6.88285462239717E+01

 Difference of energy with previous step (new-old):
           Absolute (Ha)=-6.27594E-05
           Relative     =-9.11823E-07

--- Iteration: ( 7/10) Internal Cycle: (1/1)
--------------------------------------------------------------------------------

---SELF-CONSISTENT-FIELD CONVERGENCE--------------------------------------------

     iter   Etot(hartree)      deltaE(h)  residm     vres2
 ETOT  1  -68.828546005994    -6.883E+01 7.999E-08 5.897E-04
 ETOT  2  -68.828546660048    -6.541E-07 8.550E-11 4.343E-05
 ETOT  3  -68.828546735911    -7.586E-08 1.990E-09 5.815E-06

 At SCF step    3, etot is converged : 
  for the second time, diff in etot=  7.586E-08 < toldfe=  1.000E-04

 Cartesian components of stress tensor (hartree/bohr^3)
  sigma(1 1)= -5.05661394E-04  sigma(3 2)=  0.00000000E+00
  sigma(2 2)=  2.51833750E-04  sigma(3 1)=  0.00000000E+00
  sigma(3 3)=  2.51833750E-04  sigma(2 1)=  0.00000000E+00

 Integrated electronic density in atomic spheres:
 ------------------------------------------------
 Atom  Sphere_radius  Integrated_density
    1        2.00000          0.55313325
    2        2.00000          0.55313325
    3        2.00000          5.80564188
    4        2.00000          5.80564188
    5        2.00000          5.80564188
    6        2.00000          5.80564188

---OUTPUT-----------------------------------------------------------------------

 Cartesian coordinates (xcart) [bohr]
  5.21307679361051E-05 -6.02729724455128E-18  1.29867075991133E-19
  3.17529798686253E+00  4.92999343631538E+00  4.92999343631538E+00
  2.65815576363223E-05  2.96083761699078E+00  2.96083761699078E+00
  2.65815576363223E-05  6.89914925564000E+00  6.89914925564000E+00
  3.17532353607283E+00  1.96915581932461E+00  7.89083105330615E+00
  3.17532353607283E+00  7.89083105330615E+00  1.96915581932461E+00
 Reduced coordinates (xred)
  8.20881137406811E-06 -6.11288566852131E-19  1.31711205774133E-20
  5.00000733972693E-01  5.00000000000000E-01  5.00000000000000E-01
  4.18568536977881E-06  3.00288190566403E-01  3.00288190566403E-01
  4.18568536977881E-06  6.99711809433598E-01  6.99711809433598E-01
  5.00004757098698E-01  1.99711809433597E-01  8.00288190566402E-01
  5.00004757098698E-01  8.00288190566402E-01  1.99711809433597E-01
 Cartesian forces (fcart) [Ha/bohr]; max,rms= 8.63157E-05 5.75504E-05 (free atoms)
 -2.60151595296161E-06  1.60012567037127E-31  1.60012567037127E-31
  2.60151595296161E-06  1.60012567037127E-31  1.60012567037127E-31
  1.79078700260265E-07 -8.63156614355033E-05 -8.63156614355033E-05
  1.79078700260265E-07  8.63156614355033E-05  8.63156614355033E-05
 -1.79078700260265E-07  8.63156614355033E-05 -8.63156614355033E-05
 -1.79078700260265E-07 -8.63156614355033E-05  8.63156614355033E-05
 Reduced forces (fred)
  1.65211524843099E-05 -1.57772181044202E-30 -1.57772181044202E-30
 -1.65211524843099E-05 -1.57772181044202E-30 -1.57772181044202E-30
 -1.13725480342481E-06  8.51071288656504E-04  8.51071288656504E-04
 -1.13725480342481E-06 -8.51071288656504E-04 -8.51071288656504E-04
  1.13725480342481E-06 -8.51071288656504E-04  8.51071288656504E-04
  1.13725480342481E-06  8.51071288656504E-04 -8.51071288656504E-04
 Scale of Primitive Cell (acell) [bohr]
  6.35058665141069E+00  9.85998687263077E+00  9.85998687263077E+00
 Real space primitive translations (rprimd) [bohr]
  6.35058665141069E+00  0.00000000000000E+00  0.00000000000000E+00
  0.00000000000000E+00  9.85998687263077E+00  0.00000000000000E+00
  0.00000000000000E+00  0.00000000000000E+00  9.85998687263077E+00
 Unitary Cell Volume (ucvol) [Bohr^3]=  6.17399850029283E+02
 Angles (23,13,12)= [degrees]
  9.00000000000000E+01  9.00000000000000E+01  9.00000000000000E+01
 Lengths [Bohr]
  6.35058665141069E+00  9.85998687263077E+00  9.85998687263077E+00
 Stress tensor in cartesian coordinates (strten) [Ha/bohr^3]
 -5.05661394492750E-04  0.00000000000000E+00  0.00000000000000E+00
  0.00000000000000E+00  2.51833749900527E-04  0.00000000000000E+00
  0.00000000000000E+00  0.00000000000000E+00  2.51833749900527E-04
 Total energy (etotal) [Ha]= -6.88285467359109E+01

 Difference of energy with previous step (new-old):
           Absolute (Ha)=-5.11939E-07
           Relative     =-7.43789E-09

--- Iteration: ( 8/10) Internal Cycle: (1/1)
--------------------------------------------------------------------------------

---SELF-CONSISTENT-FIELD CONVERGENCE--------------------------------------------

     iter   Etot(hartree)      deltaE(h)  residm     vres2
 ETOT  1  -68.828546596930    -6.883E+01 6.374E-08 1.612E-04
 ETOT  2  -68.828546777007    -1.801E-07 2.784E-11 8.784E-06
 ETOT  3  -68.828546792393    -1.539E-08 4.601E-10 1.508E-06

 At SCF step    3, etot is converged : 
  for the second time, diff in etot=  1.539E-08 < toldfe=  1.000E-04

 Cartesian components of stress tensor (hartree/bohr^3)
  sigma(1 1)= -5.05133518E-04  sigma(3 2)=  0.00000000E+00
  sigma(2 2)=  2.54462257E-04  sigma(3 1)=  0.00000000E+00
  sigma(3 3)=  2.54462257E-04  sigma(2 1)=  0.00000000E+00

 Integrated electronic density in atomic spheres:
 ------------------------------------------------
 Atom  Sphere_radius  Integrated_density
    1        2.00000          0.55317620
    2        2.00000          0.55317620
    3        2.00000          5.80552297
    4        2.00000          5.80552297
    5        2.00000          5.80552297
    6        2.00000          5.80552297

---OUTPUT-----------------------------------------------------------------------

 Cartesian coordinates (xcart) [bohr]
  4.68736669192417E-05 -6.02825949866933E-18  1.31465175081865E-19
  3.17535156769992E+00  4.93006846290908E+00  4.93006846290908E+00
  2.69411150603856E-05  2.96069380561424E+00  2.96069380561424E+00
  2.69411150603856E-05  6.89944312020394E+00  6.89944312020394E+00
  3.17537150025178E+00  1.96937465729485E+00  7.89076226852331E+00
  3.17537150025178E+00  7.89076226852331E+00  1.96937465729485E+00
 Reduced coordinates (xred)
  7.38088560332418E-06 -6.11376854502365E-19  1.33329969016588E-20
  5.00001561898464E-01  5.00000000000000E-01  5.00000000000000E-01
  4.24223879538369E-06  3.00269035601508E-01  3.00269035601508E-01
  4.24223879538369E-06  6.99730964398493E-01  6.99730964398493E-01
  5.00004700545272E-01  1.99730964398492E-01  8.00269035601507E-01
  5.00004700545272E-01  8.00269035601507E-01  1.99730964398492E-01
 Cartesian forces (fcart) [Ha/bohr]; max,rms= 1.08478E-05 7.26390E-06 (free atoms)
 -2.02867855348374E-06 -2.82344315751433E-22 -0.00000000000000E+00
  2.02867855348374E-06 -2.82344315751433E-22 -0.00000000000000E+00
  1.79576385375008E-07  1.08477860999290E-05  1.08477860999290E-05
  1.79576385375008E-07 -1.08477860999290E-05 -1.08477860999290E-05
 -1.79576385375008E-07 -1.08477860999290E-05  1.08477860999290E-05
 -1.79576385375008E-07  1.08477860999290E-05 -1.08477860999290E-05
 Reduced forces (fred)
  1.28834950049055E-05  2.78395361353557E-21  0.00000000000000E+00
 -1.28834950049055E-05  2.78395361353557E-21 -0.00000000000000E+00
 -1.14043275116451E-06 -1.06960656287287E-04 -1.06960656287287E-04
 -1.14043275116451E-06  1.06960656287287E-04  1.06960656287287E-04
  1.14043275116451E-06  1.06960656287287E-04 -1.06960656287287E-04
  1.14043275116451E-06 -1.06960656287287E-04  1.06960656287287E-04
 Scale of Primitive Cell (acell) [bohr]
  6.35068329715486E+00  9.86013692581817E+00  9.86013692581817E+00
 Real space primitive translations (rprimd) [bohr]
  6.35068329715486E+00  0.00000000000000E+00  0.00000000000000E+00
  0.00000000000000E+00  9.86013692581817E+00  0.00000000000000E+00
  0.00000000000000E+00  0.00000000000000E+00  9.86013692581817E+00
 Unitary Cell Volume (ucvol) [Bohr^3]=  6.17428037964970E+02
 Angles (23,13,12)= [degrees]
  9.00000000000000E+01  9.00000000000000E+01  9.00000000000000E+01
 Lengths [Bohr]
  6.35068329715486E+00  9.86013692581817E+00  9.86013692581817E+00
 Stress tensor in cartesian coordinates (strten) [Ha/bohr^3]
 -5.05133517889098E-04  0.00000000000000E+00  0.00000000000000E+00
  0.00000000000000E+00  2.54462257418943E-04  0.00000000000000E+00
  0.00000000000000E+00  0.00000000000000E+00  2.54462257418943E-04
 Total energy (etotal) [Ha]= -6.88285467923926E+01

 Difference of energy with previous step (new-old):
           Absolute (Ha)=-5.64817E-08
           Relative     =-8.20614E-10

--- Iteration: ( 9/10) Internal Cycle: (1/1)
--------------------------------------------------------------------------------

---SELF-CONSISTENT-FIELD CONVERGENCE--------------------------------------------

     iter   Etot(hartree)      deltaE(h)  residm     vres2
 ETOT  1  -68.828546726171    -6.883E+01 5.389E-07 4.191E-05
 ETOT  2  -68.828546761572    -3.540E-08 2.179E-11 2.224E-05
 ETOT  3  -68.828546810506    -4.893E-08 4.145E-10 6.860E-08

 At SCF step    3, etot is converged : 
  for the second time, diff in etot=  4.893E-08 < toldfe=  1.000E-04

 Cartesian components of stress tensor (hartree/bohr^3)
  sigma(1 1)= -5.04898214E-04  sigma(3 2)=  0.00000000E+00
  sigma(2 2)=  2.52722599E-04  sigma(3 1)=  0.00000000E+00
  sigma(3 3)=  2.52722599E-04  sigma(2 1)=  0.00000000E+00

 Integrated electronic density in atomic spheres:
 ------------------------------------------------
 Atom  Sphere_radius  Integrated_density
    1        2.00000          0.55315204
    2        2.00000          0.55315204
    3        2.00000          5.80555660
    4        2.00000          5.80555660
    5        2.00000          5.80555660
    6        2.00000          5.80555660

---OUTPUT-----------------------------------------------------------------------

 Cartesian coordinates (xcart) [bohr]
  4.45910990506007E-05 -6.02935272521957E-18  1.30436633898106E-19
  3.17530920795102E+00  4.92999915202350E+00  4.92999915202350E+00
  2.71245353424385E-05  2.96065191925507E+00  2.96065191925507E+00
  2.71245353424384E-05  6.89934638479195E+00  6.89934638479195E+00
  3.17532667451473E+00  1.96934723276844E+00  7.89065107127856E+00
  3.17532667451473E+00  7.89065107127856E+00  1.96934723276844E+00
 Reduced coordinates (xred)
  7.02156348704845E-06 -6.11496324775720E-19  1.32288698107148E-20
  5.00001921220581E-01  5.00000000000000E-01  5.00000000000000E-01
  4.27118081901269E-06  3.00269008975374E-01  3.00269008975374E-01
  4.27118081901269E-06  6.99730991024627E-01  6.99730991024627E-01
  5.00004671603249E-01  1.99730991024626E-01  8.00269008975373E-01
  5.00004671603249E-01  8.00269008975373E-01  1.99730991024626E-01
 Cartesian forces (fcart) [Ha/bohr]; max,rms= 4.98628E-06 3.37651E-06 (free atoms)
 -1.75931599359473E-06  1.60012381522870E-31  1.60012381522870E-31
  1.75931599359473E-06  1.60012381522870E-31  1.60012381522870E-31
  1.73510903540105E-07  4.98627564156165E-06  4.98627564156165E-06
  1.73510903540105E-07 -4.98627564156165E-06 -4.98627564156165E-06
 -1.73510903540105E-07 -4.98627564156165E-06  4.98627564156165E-06
 -1.73510903540105E-07  4.98627564156165E-06 -4.98627564156165E-06
 Reduced forces (fred)
  1.11727016178651E-05 -1.57772181044202E-30 -1.57772181044202E-30
 -1.11727016178651E-05 -1.57772181044202E-30 -1.57772181044202E-30
 -1.10189730540603E-06 -4.91646693693088E-05 -4.91646693693088E-05
 -1.10189730540603E-06  4.91646693693088E-05  4.91646693693088E-05
  1.10189730540603E-06  4.91646693693088E-05 -4.91646693693088E-05
  1.10189730540603E-06 -4.91646693693088E-05  4.91646693693088E-05
 Scale of Primitive Cell (acell) [bohr]
  6.35059401411819E+00  9.85999830404701E+00  9.85999830404701E+00
 Real space primitive translations (rprimd) [bohr]
  6.35059401411819E+00  0.00000000000000E+00  0.00000000000000E+00
  0.00000000000000E+00  9.85999830404701E+00  0.00000000000000E+00
  0.00000000000000E+00  0.00000000000000E+00  9.85999830404701E+00
 Unitary Cell Volume (ucvol) [Bohr^3]=  6.17401997424491E+02
 Angles (23,13,12)= [degrees]
  9.00000000000000E+01  9.00000000000000E+01  9.00000000000000E+01
 Lengths [Bohr]
  6.35059401411819E+00  9.85999830404701E+00  9.85999830404701E+00
 Stress tensor in cartesian coordinates (strten) [Ha/bohr^3]
 -5.04898213561103E-04  0.00000000000000E+00  0.00000000000000E+00
  0.00000000000000E+00  2.52722599008451E-04  0.00000000000000E+00
  0.00000000000000E+00  0.00000000000000E+00  2.52722599008451E-04
 Total energy (etotal) [Ha]= -6.88285468105056E+01

 Difference of energy with previous step (new-old):
           Absolute (Ha)=-1.81130E-08
           Relative     =-2.63162E-10

 At Broyd/MD step   9, gradients are converged : 
  max grad (force/stress) = 1.8233E-05 < tolmxf= 5.0000E-05 ha/bohr (free atoms)

================================================================================

 ----iterations are completed or convergence reached----

 Mean square residual over all n,k,spin=   6.7402E-11; max=  4.1447E-10
 reduced coordinates (array xred) for    6 atoms
       0.000007021563     -0.000000000000      0.000000000000
       0.500001921221      0.500000000000      0.500000000000
       0.000004271181      0.300269008975      0.300269008975
       0.000004271181      0.699730991025      0.699730991025
       0.500004671603      0.199730991025      0.800269008975
       0.500004671603      0.800269008975      0.199730991025
 rms dE/dt=  3.2991E-05; max dE/dt=  4.9165E-05; dE/dt below (all hartree)
    1       0.000011172702     -0.000000000000     -0.000000000000
    2      -0.000011172702     -0.000000000000     -0.000000000000
    3      -0.000001101897     -0.000049164669     -0.000049164669
    4      -0.000001101897      0.000049164669      0.000049164669
    5       0.000001101897      0.000049164669     -0.000049164669
    6       0.000001101897     -0.000049164669      0.000049164669

 cartesian coordinates (angstrom) at end:
    1      0.00002359659332    -0.00000000000000     0.00000000000000
    2      1.68030126307364     2.60884318961886     2.60884318961886
    3      0.00001435368590     1.56670951823802     1.56670951823802
    4      0.00001435368590     3.65097686099971     3.65097686099971
    5      1.68031050598107     1.04213367138084     4.17555270785688
    6      1.68031050598107     4.17555270785688     1.04213367138084

 cartesian forces (hartree/bohr) at end:
    1     -0.00000175931599     0.00000000000000     0.00000000000000
    2      0.00000175931599     0.00000000000000     0.00000000000000
    3      0.00000017351090     0.00000498627564     0.00000498627564
    4      0.00000017351090    -0.00000498627564    -0.00000498627564
    5     -0.00000017351090    -0.00000498627564     0.00000498627564
    6     -0.00000017351090     0.00000498627564    -0.00000498627564
 frms,max,avg= 3.3765068E-06 4.9862756E-06   0.000E+00  0.000E+00  0.000E+00 h/b

 cartesian forces (eV/Angstrom) at end:
    1     -0.00009046765820     0.00000000000000     0.00000000000000
    2      0.00009046765820     0.00000000000000     0.00000000000000
    3      0.00000892228865     0.00025640458113     0.00025640458113
    4      0.00000892228865    -0.00025640458113    -0.00025640458113
    5     -0.00000892228865    -0.00025640458113     0.00025640458113
    6     -0.00000892228865     0.00025640458113    -0.00025640458113
 frms,max,avg= 1.7362695E-04 2.5640458E-04   0.000E+00  0.000E+00  0.000E+00 e/A
 length scales=  6.350594014118  9.859998304047  9.859998304047 bohr
              =  3.360589613279  5.217686379238  5.217686379238 angstroms
 prteigrs : about to open file RutileGeom3_o_EIG
 Fermi (or HOMO) energy (hartree) =   0.00795   Average Vxc (hartree)=  -0.38008
 Eigenvalues (hartree) for nkpt=   8  k points:
 kpt#   1, nband= 17, wtk=  0.12500, kpt= -0.2500  0.5000  0.0000 (reduced coord)
  -0.92308   -0.92308   -0.91525   -0.91525   -0.18967   -0.18967   -0.15127   -0.15127
  -0.10909   -0.10909   -0.07306   -0.07306   -0.04801   -0.04801   -0.01603   -0.01603
   0.17219
 prteigrs : prtvol=0 or 1, do not print more k-points.


--------------------------------------------------------------------------------
 Components of total free energy (in Hartree) :

    Kinetic energy  =  3.28881713839883E+01
    Hartree energy  =  1.61508405329297E+01
    XC energy       = -1.86870362477389E+01
    Ewald energy    = -5.11857964773908E+01
    PspCore energy  =  7.23854655044058E+00
    Loc. psp. energy= -6.58007848483373E+01
    NL   psp  energy=  1.05675122956028E+01
    >>>>>>>>> Etotal= -6.88285468105056E+01

 Other information on the energy :
    Total energy(eV)= -1.87292000778665E+03 ; Band energy (Ha)=  -9.6689570135E+00
--------------------------------------------------------------------------------
 rms coord change=  6.4836E-03   atom, delta coord (reduced):
     1        0.000007021563     -0.000000000000      0.000000000000
     2       -0.000007021563      0.000000000000      0.000000000000
     3        0.000004271181     -0.009725461580     -0.009725461580
     4        0.000004271181      0.009725461580      0.009725461580
     5       -0.000004271181      0.009725461580     -0.009725461580
     6       -0.000004271181     -0.009725461580      0.009725461580

 Cartesian components of stress tensor (hartree/bohr^3)
  sigma(1 1)= -5.04898214E-04  sigma(3 2)=  0.00000000E+00
  sigma(2 2)=  2.52722599E-04  sigma(3 1)=  0.00000000E+00
  sigma(3 3)=  2.52722599E-04  sigma(2 1)=  0.00000000E+00

-Cartesian components of stress tensor (GPa)         [Pressure= -5.3643E-03 GPa]
- sigma(1 1)= -1.48546158E+01  sigma(3 2)=  0.00000000E+00
- sigma(2 2)=  7.43535432E+00  sigma(3 1)=  0.00000000E+00
- sigma(3 3)=  7.43535432E+00  sigma(2 1)=  0.00000000E+00

== END DATASET(S) ==============================================================
================================================================================
  
 -outvars: echo values of variables after computation  --------
            acell      6.3505940141E+00  9.8599983040E+00  9.8599983040E+00 Bohr
              amu      4.78800000E+01  1.59994000E+01
           diemac      1.20000000E+01
          dilatmx      1.20000000E+00
             ecut      8.00000000E+00 Hartree
           ecutsm      5.00000000E-01 Hartree
           etotal     -6.8828546811E+01
            fcart     -1.7593159936E-06  1.6001238152E-31  1.6001238152E-31
                       1.7593159936E-06  1.6001238152E-31  1.6001238152E-31
                       1.7351090354E-07  4.9862756416E-06  4.9862756416E-06
                       1.7351090354E-07 -4.9862756416E-06 -4.9862756416E-06
                      -1.7351090354E-07 -4.9862756416E-06  4.9862756416E-06
                      -1.7351090354E-07  4.9862756416E-06 -4.9862756416E-06
-          fftalg         112
           getwfk          -1
           ionmov           2
              kpt     -2.50000000E-01  5.00000000E-01  0.00000000E+00
                       5.00000000E-01 -2.50000000E-01  0.00000000E+00
                      -2.50000000E-01 -2.50000000E-01  2.50000000E-01
                      -2.50000000E-01  0.00000000E+00  0.00000000E+00
                       5.00000000E-01  5.00000000E-01  2.50000000E-01
                      -2.50000000E-01  5.00000000E-01  5.00000000E-01
                       0.00000000E+00 -2.50000000E-01  0.00000000E+00
                       0.00000000E+00  5.00000000E-01  2.50000000E-01
         kptrlatt        4    0    0     -2    2    2     -2   -2    2
          kptrlen      2.23644000E+01
P           mkmem           8
            natom           6
            nband          17
            ngfft          18      30      30
             nkpt           8
            nstep          10
             nsym           8
            ntime          10
           ntypat           2
              occ      2.000000  2.000000  2.000000  2.000000  2.000000  2.000000
                       2.000000  2.000000  2.000000  2.000000  2.000000  2.000000
                       2.000000  2.000000  2.000000  2.000000  0.000000
          optcell           1
           shiftk      0.00000000E+00  5.00000000E-01  5.00000000E-01
          spgroup         113
           strten     -5.0489821356E-04  2.5272259901E-04  2.5272259901E-04
                       0.0000000000E+00  0.0000000000E+00  0.0000000000E+00
           symrel      1  0  0   0  1  0   0  0  1      -1  0  0   0 -1  0   0  0  1
                       1  0  0   0 -1  0   0  0 -1      -1  0  0   0  1  0   0  0 -1
                       1  0  0   0  0  1   0  1  0      -1  0  0   0  0 -1   0  1  0
                       1  0  0   0  0 -1   0 -1  0      -1  0  0   0  0  1   0 -1  0
            tnons      0.0000000  0.0000000  0.0000000    -0.4999911  0.5000000  0.5000000
                       0.0000000  0.0000000  0.0000000    -0.4999911  0.5000000  0.5000000
                       0.0000000  0.0000000  0.0000000    -0.4999911  0.5000000  0.5000000
                       0.0000000  0.0000000  0.0000000    -0.4999911  0.5000000  0.5000000
           toldfe      1.00000000E-04 Hartree
            typat      1  1  2  2  2  2
              wtk        0.12500    0.12500    0.25000    0.06250    0.12500    0.06250
                         0.12500    0.12500
           xangst      2.3596593324E-05 -3.1905960447E-18  6.9024093824E-20
                       1.6803012631E+00  2.6088431896E+00  2.6088431896E+00
                       1.4353685897E-05  1.5667095182E+00  1.5667095182E+00
                       1.4353685897E-05  3.6509768610E+00  3.6509768610E+00
                       1.6803105060E+00  1.0421336714E+00  4.1755527079E+00
                       1.6803105060E+00  4.1755527079E+00  1.0421336714E+00
            xcart      4.4591099051E-05 -6.0293527252E-18  1.3043663390E-19
                       3.1753092080E+00  4.9299991520E+00  4.9299991520E+00
                       2.7124535342E-05  2.9606519193E+00  2.9606519193E+00
                       2.7124535342E-05  6.8993463848E+00  6.8993463848E+00
                       3.1753266745E+00  1.9693472328E+00  7.8906510713E+00
                       3.1753266745E+00  7.8906510713E+00  1.9693472328E+00
             xred      7.0215634870E-06 -6.1149632478E-19  1.3228869811E-20
                       5.0000192122E-01  5.0000000000E-01  5.0000000000E-01
                       4.2711808190E-06  3.0026900898E-01  3.0026900898E-01
                       4.2711808190E-06  6.9973099102E-01  6.9973099102E-01
                       5.0000467160E-01  1.9973099102E-01  8.0026900898E-01
                       5.0000467160E-01  8.0026900898E-01  1.9973099102E-01
            znucl       22.00000    8.00000

================================================================================

- Total cpu        time (s,m,h):         22.5        0.37      0.006
- Total wall clock time (s,m,h):         23.0        0.38      0.006
-
- For major independent code sections, cpu and wall times (sec),
-  as well as % of the time and number of calls for node 0-
-<BEGIN_TIMER mpi_nprocs = 1, omp_nthreads = 1, mpi_rank = 0>
- cpu_time =           22.5, wall_time =           23.0
-
- routine                        cpu     %       wall     %      number of calls  Gflops    Speedup Efficacity
-                                                                  (-1=no count)
- fourwf%(pot)                  11.531  51.3     11.363  49.5          40961      -1.00        1.01       1.01
- nonlop(apply)                  2.938  13.1      2.838  12.4          40961      -1.00        1.04       1.04
- projbd                         2.469  11.0      2.650  11.5          65330      -1.00        0.93       0.93
- vtowfk(ssdiag)                 0.922   4.1      0.882   3.8             -1      -1.00        1.05       1.05
- fourwf%(den)                   0.844   3.8      0.876   3.8           5504      -1.00        0.96       0.96
- pspini                         0.672   3.0      0.692   3.0              1      -1.00        0.97       0.97
- getghc-other                   0.531   2.4      0.502   2.2             -1      -1.00        1.06       1.06
- nonlop(forstr)                 0.219   1.0      0.173   0.8           1152      -1.00        1.26       1.26
- others (105)                   0.672   3.0      0.729   3.2             -1      -1.00        0.92       0.92
-<END_TIMER>
-
- subtotal                      20.797  92.5     20.705  90.2                                  1.00       1.00

- For major independent code sections, cpu and wall times (sec),
- as well as % of the total time and number of calls 

-<BEGIN_TIMER mpi_nprocs = 1, omp_nthreads = 1, mpi_rank = world>
- cpu_time =          22.5, wall_time =          23.0
-
- routine                         cpu     %       wall     %      number of calls Gflops    Speedup Efficacity
-                                                                  (-1=no count)
- fourwf%(pot)                  11.531  51.3     11.363  49.5          40961      -1.00        1.01       1.01
- nonlop(apply)                  2.938  13.1      2.838  12.4          40961      -1.00        1.04       1.04
- projbd                         2.469  11.0      2.650  11.5          65330      -1.00        0.93       0.93
- vtowfk(ssdiag)                 0.922   4.1      0.882   3.8             -1      -1.00        1.05       1.05
- fourwf%(den)                   0.844   3.8      0.876   3.8           5504      -1.00        0.96       0.96
- pspini                         0.672   3.0      0.692   3.0              1      -1.00        0.97       0.97
- getghc-other                   0.531   2.4      0.502   2.2             -1      -1.00        1.06       1.06
- nonlop(forstr)                 0.219   1.0      0.173   0.8           1152      -1.00        1.26       1.26
- others (105)                   0.672   3.0      0.729   3.2             -1      -1.00        0.92       0.92
-<END_TIMER>

- subtotal                      20.797  92.5     20.705  90.2                                  1.00       1.00

================================================================================

 Suggested references for the acknowledgment of ABINIT usage.

 The users of ABINIT have little formal obligations with respect to the ABINIT group
 (those specified in the GNU General Public License, http://www.gnu.org/copyleft/gpl.txt).
 However, it is common practice in the scientific literature,
 to acknowledge the efforts of people that have made the research possible.
 In this spirit, please find below suggested citations of work written by ABINIT developers,
 corresponding to implementations inside of ABINIT that you have used in the present run.
 Note also that it will be of great value to readers of publications presenting these results,
 to read papers enabling them to understand the theoretical formalism and details
 of the ABINIT implementation.
 For information on why they are suggested, see also https://www.abinit.org/about/?text=acknowledgments.
-
- [1] Recent developments in the ABINIT software package.
- Computer Phys. Comm. 205, 106 (2016).
- X.Gonze, F.Jollet, F.Abreu Araujo, D.Adams, B.Amadon, T.Applencourt,
- C.Audouze, J.-M.Beuken, J.Bieder, A.Bokhanchuk, E.Bousquet, F.Bruneval
- D.Caliste, M.Cote, F.Dahm, F.Da Pieve, M.Delaveau, M.Di Gennaro,
- B.Dorado, C.Espejo, G.Geneste, L.Genovese, A.Gerossier, M.Giantomassi,
- Y.Gillet, D.R.Hamann, L.He, G.Jomard, J.Laflamme Janssen, S.Le Roux,
- A.Levitt, A.Lherbier, F.Liu, I.Lukacevic, A.Martin, C.Martins,
- M.J.T.Oliveira, S.Ponce, Y.Pouillon, T.Rangel, G.-M.Rignanese,
- A.H.Romero, B.Rousseau, O.Rubel, A.A.Shukri, M.Stankovski, M.Torrent,
- M.J.Van Setten, B.Van Troeye, M.J.Verstraete, D.Waroquier, J.Wiktor,
- B.Xue, A.Zhou, J.W.Zwanziger.
- Comment : the fourth generic paper describing the ABINIT project.
- Note that a version of this paper, that is not formatted for Computer Phys. Comm. 
- is available at https://www.abinit.org/about/ABINIT16.pdf .
- The licence allows the authors to put it on the Web.
-
- [2] ABINIT : First-principles approach of materials and nanosystem properties.
- Computer Phys. Comm. 180, 2582-2615 (2009).
- X. Gonze, B. Amadon, P.-M. Anglade, J.-M. Beuken, F. Bottin, P. Boulanger, F. Bruneval,
- D. Caliste, R. Caracas, M. Cote, T. Deutsch, L. Genovese, Ph. Ghosez, M. Giantomassi
- S. Goedecker, D.R. Hamann, P. Hermet, F. Jollet, G. Jomard, S. Leroux, M. Mancini, S. Mazevet,
- M.J.T. Oliveira, G. Onida, Y. Pouillon, T. Rangel, G.-M. Rignanese, D. Sangalli, R. Shaltaf,
- M. Torrent, M.J. Verstraete, G. Zerah, J.W. Zwanziger
- Comment : the third generic paper describing the ABINIT project.
- Note that a version of this paper, that is not formatted for Computer Phys. Comm. 
- is available at https://www.abinit.org/about/ABINIT_CPC_v10.pdf .
- The licence allows the authors to put it on the Web.
-
- [3] A brief introduction to the ABINIT software package.
- Z. Kristallogr. 220, 558-562 (2005).
- X. Gonze, G.-M. Rignanese, M. Verstraete, J.-M. Beuken, Y. Pouillon, R. Caracas, F. Jollet,
- M. Torrent, G. Zerah, M. Mikami, Ph. Ghosez, M. Veithen, J.-Y. Raty, V. Olevano, F. Bruneval,
- L. Reining, R. Godby, G. Onida, D.R. Hamann, and D.C. Allan.
- Comment : the second generic paper describing the ABINIT project. Note that this paper
- should be cited especially if you are using the GW part of ABINIT, as several authors
- of this part are not in the list of authors of the first or third paper.
- The .pdf of the latter paper is available at https://www.abinit.org/about/zfk_0505-06_558-562.pdf.
- Note that it should not redistributed (Copyright by Oldenburg Wissenshaftverlag,
- the licence allows the authors to put it on the Web).
-
- And optionally:
-
- [4] First-principles computation of material properties : the ABINIT software project. 
- X. Gonze, J.-M. Beuken, R. Caracas, F. Detraux, M. Fuchs, G.-M. Rignanese, L. Sindic,
- M. Verstraete, G. Zerah, F. Jollet, M. Torrent, A. Roy, M. Mikami, Ph. Ghosez, J.-Y. Raty, D.C. Allan.
- Computational Materials Science 25, 478-492 (2002). http://dx.doi.org/10.1016/S0927-0256(02)00325-7
- Comment : the original paper describing the ABINIT project.
-
- Proc.   0 individual time (sec): cpu=         22.5  wall=         23.0

================================================================================

 Calculation completed.
.Delivered   4 WARNINGs and   9 COMMENTs to log file.
+Overall time at end (sec) : cpu=         22.5  wall=         23.0
