
.Version 8.6.3 of ABINIT 
.(sequential version, prepared for a x86_64_linux_gnu5.4 computer) 

.Copyright (C) 1998-2017 ABINIT group . 
 ABINIT comes with ABSOLUTELY NO WARRANTY.
 It is free software, and you are welcome to redistribute it
 under certain conditions (GNU General Public License,
 see ~abinit/COPYING or http://www.gnu.org/copyleft/gpl.txt).

 ABINIT is a project of the Universite Catholique de Louvain,
 Corning Inc. and other collaborators, see ~abinit/doc/developers/contributors.txt .
 Please read ~abinit/doc/users/acknowledgments.html for suggested
 acknowledgments of the ABINIT effort.
 For more information, see https://www.abinit.org .

.Starting date : Tue 24 Apr 2018.
- ( at 10h29 )
  
- input  file    -> manualGeomOpt.in
- output file    -> mamualGeomOpt.out
- root for input  files -> manualGeomOpt_i
- root for output files -> manualGeomOpt_o


 DATASET    1 : space group P1 (#  1); Bravais aP (primitive triclinic)
================================================================================
 Values of the parameters that define the memory need for DATASET  1.
     intxc =       0    ionmov =       0      iscf =       7    lmnmax =       6
     lnmax =       6     mgfft =     320  mpssoang =       3    mqgrid =   15692
     natom =      20  nloc_mem =       1    nspden =       1   nspinor =       1
    nsppol =       1      nsym =       1    n1xccc =    2501    ntypat =       3
    occopt =       1   xclevel =       2
-    mband =         123        mffmem =           1         mkmem =           2
       mpw =       75364          nfft =     1310720          nkpt =           2
================================================================================
P This job should need less than                     681.793 Mbytes of memory.
  Rough estimation (10% accuracy) of disk space for files :
_ WF disk file :    282.893 Mbytes ; DEN or POT disk file :     10.002 Mbytes.
================================================================================


 DATASET    2 : space group P1 (#  1); Bravais aP (primitive triclinic)
================================================================================
 Values of the parameters that define the memory need for DATASET  2.
     intxc =       0    ionmov =       0      iscf =       7    lmnmax =       6
     lnmax =       6     mgfft =     320  mpssoang =       3    mqgrid =   15757
     natom =      20  nloc_mem =       1    nspden =       1   nspinor =       1
    nsppol =       1      nsym =       1    n1xccc =    2501    ntypat =       3
    occopt =       1   xclevel =       2
-    mband =         123        mffmem =           1         mkmem =           2
       mpw =       75672          nfft =     1310720          nkpt =           2
================================================================================
P This job should need less than                     682.978 Mbytes of memory.
  Rough estimation (10% accuracy) of disk space for files :
_ WF disk file :    284.049 Mbytes ; DEN or POT disk file :     10.002 Mbytes.
================================================================================


 DATASET    3 : space group P1 (#  1); Bravais aP (primitive triclinic)
================================================================================
 Values of the parameters that define the memory need for DATASET  3.
     intxc =       0    ionmov =       0      iscf =       7    lmnmax =       6
     lnmax =       6     mgfft =     320  mpssoang =       3    mqgrid =   15823
     natom =      20  nloc_mem =       1    nspden =       1   nspinor =       1
    nsppol =       1      nsym =       1    n1xccc =    2501    ntypat =       3
    occopt =       1   xclevel =       2
-    mband =         123        mffmem =           1         mkmem =           2
       mpw =       76040          nfft =     1310720          nkpt =           2
================================================================================
P This job should need less than                     684.389 Mbytes of memory.
  Rough estimation (10% accuracy) of disk space for files :
_ WF disk file :    285.430 Mbytes ; DEN or POT disk file :     10.002 Mbytes.
================================================================================


 DATASET    4 : space group P1 (#  1); Bravais aP (primitive triclinic)
================================================================================
 Values of the parameters that define the memory need for DATASET  4.
     intxc =       0    ionmov =       0      iscf =       7    lmnmax =       6
     lnmax =       6     mgfft =     320  mpssoang =       3    mqgrid =   15889
     natom =      20  nloc_mem =       1    nspden =       1   nspinor =       1
    nsppol =       1      nsym =       1    n1xccc =    2501    ntypat =       3
    occopt =       1   xclevel =       2
-    mband =         123        mffmem =           1         mkmem =           2
       mpw =       76336          nfft =     1310720          nkpt =           2
================================================================================
P This job should need less than                     685.529 Mbytes of memory.
  Rough estimation (10% accuracy) of disk space for files :
_ WF disk file :    286.542 Mbytes ; DEN or POT disk file :     10.002 Mbytes.
================================================================================


 DATASET    5 : space group P1 (#  1); Bravais aP (primitive triclinic)
================================================================================
 Values of the parameters that define the memory need for DATASET  5.
     intxc =       0    ionmov =       0      iscf =       7    lmnmax =       6
     lnmax =       6     mgfft =     320  mpssoang =       3    mqgrid =   15955
     natom =      20  nloc_mem =       1    nspden =       1   nspinor =       1
    nsppol =       1      nsym =       1    n1xccc =    2501    ntypat =       3
    occopt =       1   xclevel =       2
-    mband =         123        mffmem =           1         mkmem =           2
       mpw =       76668          nfft =     1310720          nkpt =           2
================================================================================
P This job should need less than                     686.805 Mbytes of memory.
  Rough estimation (10% accuracy) of disk space for files :
_ WF disk file :    287.788 Mbytes ; DEN or POT disk file :     10.002 Mbytes.
================================================================================


 DATASET    6 : space group P1 (#  1); Bravais aP (primitive triclinic)
================================================================================
 Values of the parameters that define the memory need for DATASET  6.
     intxc =       0    ionmov =       0      iscf =       7    lmnmax =       6
     lnmax =       6     mgfft =     324  mpssoang =       3    mqgrid =   16021
     natom =      20  nloc_mem =       1    nspden =       1   nspinor =       1
    nsppol =       1      nsym =       1    n1xccc =    2501    ntypat =       3
    occopt =       1   xclevel =       2
-    mband =         123        mffmem =           1         mkmem =           2
       mpw =       76940          nfft =     1327104          nkpt =           2
================================================================================
P This job should need less than                     692.745 Mbytes of memory.
  Rough estimation (10% accuracy) of disk space for files :
_ WF disk file :    288.809 Mbytes ; DEN or POT disk file :     10.127 Mbytes.
================================================================================


 DATASET    7 : space group P1 (#  1); Bravais aP (primitive triclinic)
================================================================================
 Values of the parameters that define the memory need for DATASET  7.
     intxc =       0    ionmov =       0      iscf =       7    lmnmax =       6
     lnmax =       6     mgfft =     324  mpssoang =       3    mqgrid =   16087
     natom =      20  nloc_mem =       1    nspden =       1   nspinor =       1
    nsppol =       1      nsym =       1    n1xccc =    2501    ntypat =       3
    occopt =       1   xclevel =       2
-    mband =         123        mffmem =           1         mkmem =           2
       mpw =       77280          nfft =     1327104          nkpt =           2
================================================================================
P This job should need less than                     694.051 Mbytes of memory.
  Rough estimation (10% accuracy) of disk space for files :
_ WF disk file :    290.085 Mbytes ; DEN or POT disk file :     10.127 Mbytes.
================================================================================


 DATASET    8 : space group P1 (#  1); Bravais aP (primitive triclinic)
================================================================================
 Values of the parameters that define the memory need for DATASET  8.
     intxc =       0    ionmov =       0      iscf =       7    lmnmax =       6
     lnmax =       6     mgfft =     324  mpssoang =       3    mqgrid =   16153
     natom =      20  nloc_mem =       1    nspden =       1   nspinor =       1
    nsppol =       1      nsym =       1    n1xccc =    2501    ntypat =       3
    occopt =       1   xclevel =       2
-    mband =         123        mffmem =           1         mkmem =           2
       mpw =       77596          nfft =     1327104          nkpt =           2
================================================================================
P This job should need less than                     695.267 Mbytes of memory.
  Rough estimation (10% accuracy) of disk space for files :
_ WF disk file :    291.271 Mbytes ; DEN or POT disk file :     10.127 Mbytes.
================================================================================


 DATASET    9 : space group P1 (#  1); Bravais aP (primitive triclinic)
================================================================================
 Values of the parameters that define the memory need for DATASET  9.
     intxc =       0    ionmov =       0      iscf =       7    lmnmax =       6
     lnmax =       6     mgfft =     360  mpssoang =       3    mqgrid =   16219
     natom =      20  nloc_mem =       1    nspden =       1   nspinor =       1
    nsppol =       1      nsym =       1    n1xccc =    2501    ntypat =       3
    occopt =       1   xclevel =       2
-    mband =         123        mffmem =           1         mkmem =           2
       mpw =       77916          nfft =     1474560          nkpt =           2
================================================================================
P This job should need less than                     740.509 Mbytes of memory.
  Rough estimation (10% accuracy) of disk space for files :
_ WF disk file :    292.472 Mbytes ; DEN or POT disk file :     11.252 Mbytes.
================================================================================


 DATASET   10 : space group P1 (#  1); Bravais aP (primitive triclinic)
================================================================================
 Values of the parameters that define the memory need for DATASET 10.
     intxc =       0    ionmov =       0      iscf =       7    lmnmax =       6
     lnmax =       6     mgfft =     360  mpssoang =       3    mqgrid =   16285
     natom =      20  nloc_mem =       1    nspden =       1   nspinor =       1
    nsppol =       1      nsym =       1    n1xccc =    2501    ntypat =       3
    occopt =       1   xclevel =       2
-    mband =         123        mffmem =           1         mkmem =           2
       mpw =       78236          nfft =     1474560          nkpt =           2
================================================================================
P This job should need less than                     741.740 Mbytes of memory.
  Rough estimation (10% accuracy) of disk space for files :
_ WF disk file :    293.674 Mbytes ; DEN or POT disk file :     11.252 Mbytes.
================================================================================


 DATASET   11 : space group P1 (#  1); Bravais aP (primitive triclinic)
================================================================================
 Values of the parameters that define the memory need for DATASET 11.
     intxc =       0    ionmov =       0      iscf =       7    lmnmax =       6
     lnmax =       6     mgfft =     360  mpssoang =       3    mqgrid =   16351
     natom =      20  nloc_mem =       1    nspden =       1   nspinor =       1
    nsppol =       1      nsym =       1    n1xccc =    2501    ntypat =       3
    occopt =       1   xclevel =       2
-    mband =         123        mffmem =           1         mkmem =           2
       mpw =       78536          nfft =     1474560          nkpt =           2
================================================================================
P This job should need less than                     742.895 Mbytes of memory.
  Rough estimation (10% accuracy) of disk space for files :
_ WF disk file :    294.800 Mbytes ; DEN or POT disk file :     11.252 Mbytes.
================================================================================


 DATASET   12 : space group P1 (#  1); Bravais aP (primitive triclinic)
================================================================================
 Values of the parameters that define the memory need for DATASET 12.
     intxc =       0    ionmov =       0      iscf =       7    lmnmax =       6
     lnmax =       6     mgfft =     360  mpssoang =       3    mqgrid =   16417
     natom =      20  nloc_mem =       1    nspden =       1   nspinor =       1
    nsppol =       1      nsym =       1    n1xccc =    2501    ntypat =       3
    occopt =       1   xclevel =       2
-    mband =         123        mffmem =           1         mkmem =           2
       mpw =       78864          nfft =     1474560          nkpt =           2
================================================================================
P This job should need less than                     744.156 Mbytes of memory.
  Rough estimation (10% accuracy) of disk space for files :
_ WF disk file :    296.031 Mbytes ; DEN or POT disk file :     11.252 Mbytes.
================================================================================


 DATASET   13 : space group P1 (#  1); Bravais aP (primitive triclinic)
================================================================================
 Values of the parameters that define the memory need for DATASET 13.
     intxc =       0    ionmov =       0      iscf =       7    lmnmax =       6
     lnmax =       6     mgfft =     360  mpssoang =       3    mqgrid =   16482
     natom =      20  nloc_mem =       1    nspden =       1   nspinor =       1
    nsppol =       1      nsym =       1    n1xccc =    2501    ntypat =       3
    occopt =       1   xclevel =       2
-    mband =         123        mffmem =           1         mkmem =           2
       mpw =       79168          nfft =     1474560          nkpt =           2
================================================================================
P This job should need less than                     745.326 Mbytes of memory.
  Rough estimation (10% accuracy) of disk space for files :
_ WF disk file :    297.172 Mbytes ; DEN or POT disk file :     11.252 Mbytes.
================================================================================


 DATASET   14 : space group P1 (#  1); Bravais aP (primitive triclinic)
================================================================================
 Values of the parameters that define the memory need for DATASET 14.
     intxc =       0    ionmov =       0      iscf =       7    lmnmax =       6
     lnmax =       6     mgfft =     360  mpssoang =       3    mqgrid =   16548
     natom =      20  nloc_mem =       1    nspden =       1   nspinor =       1
    nsppol =       1      nsym =       1    n1xccc =    2501    ntypat =       3
    occopt =       1   xclevel =       2
-    mband =         123        mffmem =           1         mkmem =           2
       mpw =       79464          nfft =     1474560          nkpt =           2
================================================================================
P This job should need less than                     746.466 Mbytes of memory.
  Rough estimation (10% accuracy) of disk space for files :
_ WF disk file :    298.283 Mbytes ; DEN or POT disk file :     11.252 Mbytes.
================================================================================


 DATASET   15 : space group P1 (#  1); Bravais aP (primitive triclinic)
================================================================================
 Values of the parameters that define the memory need for DATASET 15.
     intxc =       0    ionmov =       0      iscf =       7    lmnmax =       6
     lnmax =       6     mgfft =     360  mpssoang =       3    mqgrid =   16614
     natom =      20  nloc_mem =       1    nspden =       1   nspinor =       1
    nsppol =       1      nsym =       1    n1xccc =    2501    ntypat =       3
    occopt =       1   xclevel =       2
-    mband =         123        mffmem =           1         mkmem =           2
       mpw =       79800          nfft =     1474560          nkpt =           2
================================================================================
P This job should need less than                     747.757 Mbytes of memory.
  Rough estimation (10% accuracy) of disk space for files :
_ WF disk file :    299.544 Mbytes ; DEN or POT disk file :     11.252 Mbytes.
================================================================================

--------------------------------------------------------------------------------
------------- Echo of variables that govern the present computation ------------
--------------------------------------------------------------------------------
-
- outvars: echo of selected default values                                      
-   iomode0 =  0 , fftalg0 =112 , wfoptalg0 =  0
-
- outvars: echo of global parameters not present in the input file              
-  max_nthreads =    0
-
 -outvars: echo values of preprocessed input variables --------
            acell1     8.6808000000E+00  8.6808000000E+00  4.5000000000E+01 Bohr
            acell2     8.6808000000E+00  8.6808000000E+00  4.5189000000E+01 Bohr
            acell3     8.6808000000E+00  8.6808000000E+00  4.5378000000E+01 Bohr
            acell4     8.6808000000E+00  8.6808000000E+00  4.5567000000E+01 Bohr
            acell5     8.6808000000E+00  8.6808000000E+00  4.5756000000E+01 Bohr
            acell6     8.6808000000E+00  8.6808000000E+00  4.5945000000E+01 Bohr
            acell7     8.6808000000E+00  8.6808000000E+00  4.6134000000E+01 Bohr
            acell8     8.6808000000E+00  8.6808000000E+00  4.6323000000E+01 Bohr
            acell9     8.6808000000E+00  8.6808000000E+00  4.6512000000E+01 Bohr
            acell10    8.6808000000E+00  8.6808000000E+00  4.6701000000E+01 Bohr
            acell11    8.6808000000E+00  8.6808000000E+00  4.6890000000E+01 Bohr
            acell12    8.6808000000E+00  8.6808000000E+00  4.7079000000E+01 Bohr
            acell13    8.6808000000E+00  8.6808000000E+00  4.7268000000E+01 Bohr
            acell14    8.6808000000E+00  8.6808000000E+00  4.7457000000E+01 Bohr
            acell15    8.6808000000E+00  8.6808000000E+00  4.7646000000E+01 Bohr
              amu      4.78800000E+01  1.59994000E+01  1.06420000E+02
           diemac      1.20000000E+01
             ecut      6.00000000E+01 Hartree
-          fftalg         112
              ixc          11
           jdtset        1    2    3    4    5    6    7    8    9   10
                        11   12   13   14   15
              kpt      1.25000000E-01  5.00000000E-01  5.00000000E-01
                       3.75000000E-01  5.00000000E-01  5.00000000E-01
           kptopt           2
         kptrlatt        4    0    0      0    1    0      0    0    1
          kptrlen      8.68080000E+00
P           mkmem           2
            natom          20
            nband         123
           ndtset          15
            ngfft1         64      64     320
            ngfft2         64      64     320
            ngfft3         64      64     320
            ngfft4         64      64     320
            ngfft5         64      64     320
            ngfft6         64      64     324
            ngfft7         64      64     324
            ngfft8         64      64     324
            ngfft9         64      64     360
            ngfft10        64      64     360
            ngfft11        64      64     360
            ngfft12        64      64     360
            ngfft13        64      64     360
            ngfft14        64      64     360
            ngfft15        64      64     360
             nkpt           2
            nstep          40
             nsym           1
           ntypat           3
              occ      2.000000  2.000000  2.000000  2.000000  2.000000  2.000000
                       2.000000  2.000000  2.000000  2.000000  2.000000  2.000000
                       2.000000  2.000000  2.000000  2.000000  2.000000  2.000000
                       2.000000  2.000000  2.000000  2.000000  2.000000  2.000000
                       2.000000  2.000000  2.000000  2.000000  2.000000  2.000000
                       2.000000  2.000000  2.000000  2.000000  2.000000  2.000000
                       2.000000  2.000000  2.000000  2.000000  2.000000  2.000000
                       2.000000  2.000000  2.000000  2.000000  2.000000  2.000000
                       2.000000  2.000000  2.000000  2.000000  2.000000  2.000000
                       2.000000  2.000000  2.000000  2.000000  2.000000  2.000000
                       2.000000  2.000000  2.000000  2.000000  2.000000  2.000000
                       2.000000  2.000000  2.000000  2.000000  2.000000  2.000000
                       2.000000  2.000000  2.000000  2.000000  2.000000  2.000000
                       2.000000  2.000000  2.000000  2.000000  2.000000  2.000000
                       2.000000  2.000000  2.000000  2.000000  2.000000  2.000000
                       2.000000  2.000000  2.000000  2.000000  2.000000  2.000000
                       2.000000  2.000000  2.000000  2.000000  2.000000  2.000000
                       2.000000  2.000000  2.000000  2.000000  2.000000  2.000000
                       2.000000  2.000000  2.000000  2.000000  2.000000  2.000000
                       2.000000  2.000000  2.000000  2.000000  2.000000  2.000000
                       0.000000  0.000000  0.000000
           shiftk      5.00000000E-01  5.00000000E-01  5.00000000E-01
          spgroup           1
           toldfe      1.00000000E-02 Hartree
            typat      1  1  1  1  2  2  2  2  2  2  2  2  3  3  3  3  3  3  3  3
              wtk        0.50000    0.50000
           xangst1     0.0000000000E+00  0.0000000000E+00  0.0000000000E+00
                       0.0000000000E+00  0.0000000000E+00  4.5936815123E+00
                       2.2968407562E+00  1.4793678043E+00  2.2968407562E+00
                       2.2968407562E+00  1.4793678043E+00  6.8905222685E+00
                       3.9876836484E+01  0.0000000000E+00  1.4240158683E+00
                       3.9876836484E+01  0.0000000000E+00  6.0176973806E+00
                       3.1696656440E+00  0.0000000000E+00  3.1696656440E+00
                       3.1696656440E+00  0.0000000000E+00  7.7633471563E+00
                       8.7282488785E-01  1.4793678043E+00  3.7208566245E+00
                       8.7282488785E-01  1.4793678043E+00  8.3145381368E+00
                       3.7208566245E+00  1.4793678043E+00  8.7282488785E-01
                       3.7208566245E+00  1.4793678043E+00  5.4665064002E+00
                       8.7282488785E-01  0.0000000000E+00  1.1833249068E+01
                       8.7282488785E-01  0.0000000000E+00  1.5723971576E+01
                       1.9453612542E+00  1.3755961537E+00  1.3208845221E+01
                       1.9453612542E+00  1.3755961537E+00  1.7099567730E+01
                       1.9453612542E+00 -1.3755961537E+00  1.3208845221E+01
                       1.9453612542E+00 -1.3755961537E+00  1.7099567730E+01
                       0.0000000000E+00  0.0000000000E+00  1.4584388457E+01
                       0.0000000000E+00  0.0000000000E+00  1.8475110966E+01
           xangst2     0.0000000000E+00  0.0000000000E+00  0.0000000000E+00
                       0.0000000000E+00  0.0000000000E+00  4.5936815123E+00
                       2.2968407562E+00  1.4793678043E+00  2.2968407562E+00
                       2.2968407562E+00  1.4793678043E+00  6.8905222685E+00
                       3.9876836484E+01  0.0000000000E+00  1.4240158683E+00
                       3.9876836484E+01  0.0000000000E+00  6.0176973806E+00
                       3.1696656440E+00  0.0000000000E+00  3.1696656440E+00
                       3.1696656440E+00  0.0000000000E+00  7.7633471563E+00
                       8.7282488785E-01  1.4793678043E+00  3.7208566245E+00
                       8.7282488785E-01  1.4793678043E+00  8.3145381368E+00
                       3.7208566245E+00  1.4793678043E+00  8.7282488785E-01
                       3.7208566245E+00  1.4793678043E+00  5.4665064002E+00
                       8.7282488785E-01  0.0000000000E+00  1.1933263560E+01
                       8.7282488785E-01  0.0000000000E+00  1.5823986068E+01
                       1.9453612542E+00  1.3755961537E+00  1.3308859714E+01
                       1.9453612542E+00  1.3755961537E+00  1.7199582222E+01
                       1.9453612542E+00 -1.3755961537E+00  1.3308859714E+01
                       1.9453612542E+00 -1.3755961537E+00  1.7199582222E+01
                       0.0000000000E+00  0.0000000000E+00  1.4684402950E+01
                       0.0000000000E+00  0.0000000000E+00  1.8575125458E+01
           xangst3     0.0000000000E+00  0.0000000000E+00  0.0000000000E+00
                       0.0000000000E+00  0.0000000000E+00  4.5936815123E+00
                       2.2968407562E+00  1.4793678043E+00  2.2968407562E+00
                       2.2968407562E+00  1.4793678043E+00  6.8905222685E+00
                       3.9876836484E+01  0.0000000000E+00  1.4240158683E+00
                       3.9876836484E+01  0.0000000000E+00  6.0176973806E+00
                       3.1696656440E+00  0.0000000000E+00  3.1696656440E+00
                       3.1696656440E+00  0.0000000000E+00  7.7633471563E+00
                       8.7282488785E-01  1.4793678043E+00  3.7208566245E+00
                       8.7282488785E-01  1.4793678043E+00  8.3145381368E+00
                       3.7208566245E+00  1.4793678043E+00  8.7282488785E-01
                       3.7208566245E+00  1.4793678043E+00  5.4665064002E+00
                       8.7282488785E-01  0.0000000000E+00  1.2033278052E+01
                       8.7282488785E-01  0.0000000000E+00  1.5924000561E+01
                       1.9453612542E+00  1.3755961537E+00  1.3408874206E+01
                       1.9453612542E+00  1.3755961537E+00  1.7299596715E+01
                       1.9453612542E+00 -1.3755961537E+00  1.3408874206E+01
                       1.9453612542E+00 -1.3755961537E+00  1.7299596715E+01
                       0.0000000000E+00  0.0000000000E+00  1.4784417442E+01
                       0.0000000000E+00  0.0000000000E+00  1.8675139951E+01
           xangst4     0.0000000000E+00  0.0000000000E+00  0.0000000000E+00
                       0.0000000000E+00  0.0000000000E+00  4.5936815123E+00
                       2.2968407562E+00  1.4793678043E+00  2.2968407562E+00
                       2.2968407562E+00  1.4793678043E+00  6.8905222685E+00
                       3.9876836484E+01  0.0000000000E+00  1.4240158683E+00
                       3.9876836484E+01  0.0000000000E+00  6.0176973806E+00
                       3.1696656440E+00  0.0000000000E+00  3.1696656440E+00
                       3.1696656440E+00  0.0000000000E+00  7.7633471563E+00
                       8.7282488785E-01  1.4793678043E+00  3.7208566245E+00
                       8.7282488785E-01  1.4793678043E+00  8.3145381368E+00
                       3.7208566245E+00  1.4793678043E+00  8.7282488785E-01
                       3.7208566245E+00  1.4793678043E+00  5.4665064002E+00
                       8.7282488785E-01  0.0000000000E+00  1.2133292545E+01
                       8.7282488785E-01  0.0000000000E+00  1.6024015053E+01
                       1.9453612542E+00  1.3755961537E+00  1.3508888699E+01
                       1.9453612542E+00  1.3755961537E+00  1.7399611207E+01
                       1.9453612542E+00 -1.3755961537E+00  1.3508888699E+01
                       1.9453612542E+00 -1.3755961537E+00  1.7399611207E+01
                       0.0000000000E+00  0.0000000000E+00  1.4884431935E+01
                       0.0000000000E+00  0.0000000000E+00  1.8775154443E+01
           xangst5     0.0000000000E+00  0.0000000000E+00  0.0000000000E+00
                       0.0000000000E+00  0.0000000000E+00  4.5936815123E+00
                       2.2968407562E+00  1.4793678043E+00  2.2968407562E+00
                       2.2968407562E+00  1.4793678043E+00  6.8905222685E+00
                       3.9876836484E+01  0.0000000000E+00  1.4240158683E+00
                       3.9876836484E+01  0.0000000000E+00  6.0176973806E+00
                       3.1696656440E+00  0.0000000000E+00  3.1696656440E+00
                       3.1696656440E+00  0.0000000000E+00  7.7633471563E+00
                       8.7282488785E-01  1.4793678043E+00  3.7208566245E+00
                       8.7282488785E-01  1.4793678043E+00  8.3145381368E+00
                       3.7208566245E+00  1.4793678043E+00  8.7282488785E-01
                       3.7208566245E+00  1.4793678043E+00  5.4665064002E+00
                       8.7282488785E-01  0.0000000000E+00  1.2233307037E+01
                       8.7282488785E-01  0.0000000000E+00  1.6124029546E+01
                       1.9453612542E+00  1.3755961537E+00  1.3608903191E+01
                       1.9453612542E+00  1.3755961537E+00  1.7499625699E+01
                       1.9453612542E+00 -1.3755961537E+00  1.3608903191E+01
                       1.9453612542E+00 -1.3755961537E+00  1.7499625699E+01
                       0.0000000000E+00  0.0000000000E+00  1.4984446427E+01
                       0.0000000000E+00  0.0000000000E+00  1.8875168935E+01
           xangst6     0.0000000000E+00  0.0000000000E+00  0.0000000000E+00
                       0.0000000000E+00  0.0000000000E+00  4.5936815123E+00
                       2.2968407562E+00  1.4793678043E+00  2.2968407562E+00
                       2.2968407562E+00  1.4793678043E+00  6.8905222685E+00
                       3.9876836484E+01  0.0000000000E+00  1.4240158683E+00
                       3.9876836484E+01  0.0000000000E+00  6.0176973806E+00
                       3.1696656440E+00  0.0000000000E+00  3.1696656440E+00
                       3.1696656440E+00  0.0000000000E+00  7.7633471563E+00
                       8.7282488785E-01  1.4793678043E+00  3.7208566245E+00
                       8.7282488785E-01  1.4793678043E+00  8.3145381368E+00
                       3.7208566245E+00  1.4793678043E+00  8.7282488785E-01
                       3.7208566245E+00  1.4793678043E+00  5.4665064002E+00
                       8.7282488785E-01  0.0000000000E+00  1.2333321530E+01
                       8.7282488785E-01  0.0000000000E+00  1.6224044038E+01
                       1.9453612542E+00  1.3755961537E+00  1.3708917683E+01
                       1.9453612542E+00  1.3755961537E+00  1.7599640192E+01
                       1.9453612542E+00 -1.3755961537E+00  1.3708917683E+01
                       1.9453612542E+00 -1.3755961537E+00  1.7599640192E+01
                       0.0000000000E+00  0.0000000000E+00  1.5084460919E+01
                       0.0000000000E+00  0.0000000000E+00  1.8975183428E+01
           xangst7     0.0000000000E+00  0.0000000000E+00  0.0000000000E+00
                       0.0000000000E+00  0.0000000000E+00  4.5936815123E+00
                       2.2968407562E+00  1.4793678043E+00  2.2968407562E+00
                       2.2968407562E+00  1.4793678043E+00  6.8905222685E+00
                       3.9876836484E+01  0.0000000000E+00  1.4240158683E+00
                       3.9876836484E+01  0.0000000000E+00  6.0176973806E+00
                       3.1696656440E+00  0.0000000000E+00  3.1696656440E+00
                       3.1696656440E+00  0.0000000000E+00  7.7633471563E+00
                       8.7282488785E-01  1.4793678043E+00  3.7208566245E+00
                       8.7282488785E-01  1.4793678043E+00  8.3145381368E+00
                       3.7208566245E+00  1.4793678043E+00  8.7282488785E-01
                       3.7208566245E+00  1.4793678043E+00  5.4665064002E+00
                       8.7282488785E-01  0.0000000000E+00  1.2433336022E+01
                       8.7282488785E-01  0.0000000000E+00  1.6324058531E+01
                       1.9453612542E+00  1.3755961537E+00  1.3808932176E+01
                       1.9453612542E+00  1.3755961537E+00  1.7699654684E+01
                       1.9453612542E+00 -1.3755961537E+00  1.3808932176E+01
                       1.9453612542E+00 -1.3755961537E+00  1.7699654684E+01
                       0.0000000000E+00  0.0000000000E+00  1.5184475412E+01
                       0.0000000000E+00  0.0000000000E+00  1.9075197920E+01
           xangst8     0.0000000000E+00  0.0000000000E+00  0.0000000000E+00
                       0.0000000000E+00  0.0000000000E+00  4.5936815123E+00
                       2.2968407562E+00  1.4793678043E+00  2.2968407562E+00
                       2.2968407562E+00  1.4793678043E+00  6.8905222685E+00
                       3.9876836484E+01  0.0000000000E+00  1.4240158683E+00
                       3.9876836484E+01  0.0000000000E+00  6.0176973806E+00
                       3.1696656440E+00  0.0000000000E+00  3.1696656440E+00
                       3.1696656440E+00  0.0000000000E+00  7.7633471563E+00
                       8.7282488785E-01  1.4793678043E+00  3.7208566245E+00
                       8.7282488785E-01  1.4793678043E+00  8.3145381368E+00
                       3.7208566245E+00  1.4793678043E+00  8.7282488785E-01
                       3.7208566245E+00  1.4793678043E+00  5.4665064002E+00
                       8.7282488785E-01  0.0000000000E+00  1.2533350515E+01
                       8.7282488785E-01  0.0000000000E+00  1.6424073023E+01
                       1.9453612542E+00  1.3755961537E+00  1.3908946668E+01
                       1.9453612542E+00  1.3755961537E+00  1.7799669177E+01
                       1.9453612542E+00 -1.3755961537E+00  1.3908946668E+01
                       1.9453612542E+00 -1.3755961537E+00  1.7799669177E+01
                       0.0000000000E+00  0.0000000000E+00  1.5284489904E+01
                       0.0000000000E+00  0.0000000000E+00  1.9175212413E+01
           xangst9     0.0000000000E+00  0.0000000000E+00  0.0000000000E+00
                       0.0000000000E+00  0.0000000000E+00  4.5936815123E+00
                       2.2968407562E+00  1.4793678043E+00  2.2968407562E+00
                       2.2968407562E+00  1.4793678043E+00  6.8905222685E+00
                       3.9876836484E+01  0.0000000000E+00  1.4240158683E+00
                       3.9876836484E+01  0.0000000000E+00  6.0176973806E+00
                       3.1696656440E+00  0.0000000000E+00  3.1696656440E+00
                       3.1696656440E+00  0.0000000000E+00  7.7633471563E+00
                       8.7282488785E-01  1.4793678043E+00  3.7208566245E+00
                       8.7282488785E-01  1.4793678043E+00  8.3145381368E+00
                       3.7208566245E+00  1.4793678043E+00  8.7282488785E-01
                       3.7208566245E+00  1.4793678043E+00  5.4665064002E+00
                       8.7282488785E-01  0.0000000000E+00  1.2633365007E+01
                       8.7282488785E-01  0.0000000000E+00  1.6524087515E+01
                       1.9453612542E+00  1.3755961537E+00  1.4008961161E+01
                       1.9453612542E+00  1.3755961537E+00  1.7899683669E+01
                       1.9453612542E+00 -1.3755961537E+00  1.4008961161E+01
                       1.9453612542E+00 -1.3755961537E+00  1.7899683669E+01
                       0.0000000000E+00  0.0000000000E+00  1.5384504397E+01
                       0.0000000000E+00  0.0000000000E+00  1.9275226905E+01
           xangst10    0.0000000000E+00  0.0000000000E+00  0.0000000000E+00
                       0.0000000000E+00  0.0000000000E+00  4.5936815123E+00
                       2.2968407562E+00  1.4793678043E+00  2.2968407562E+00
                       2.2968407562E+00  1.4793678043E+00  6.8905222685E+00
                       3.9876836484E+01  0.0000000000E+00  1.4240158683E+00
                       3.9876836484E+01  0.0000000000E+00  6.0176973806E+00
                       3.1696656440E+00  0.0000000000E+00  3.1696656440E+00
                       3.1696656440E+00  0.0000000000E+00  7.7633471563E+00
                       8.7282488785E-01  1.4793678043E+00  3.7208566245E+00
                       8.7282488785E-01  1.4793678043E+00  8.3145381368E+00
                       3.7208566245E+00  1.4793678043E+00  8.7282488785E-01
                       3.7208566245E+00  1.4793678043E+00  5.4665064002E+00
                       8.7282488785E-01  0.0000000000E+00  1.2733379499E+01
                       8.7282488785E-01  0.0000000000E+00  1.6624102008E+01
                       1.9453612542E+00  1.3755961537E+00  1.4108975653E+01
                       1.9453612542E+00  1.3755961537E+00  1.7999698162E+01
                       1.9453612542E+00 -1.3755961537E+00  1.4108975653E+01
                       1.9453612542E+00 -1.3755961537E+00  1.7999698162E+01
                       0.0000000000E+00  0.0000000000E+00  1.5484518889E+01
                       0.0000000000E+00  0.0000000000E+00  1.9375241398E+01
           xangst11    0.0000000000E+00  0.0000000000E+00  0.0000000000E+00
                       0.0000000000E+00  0.0000000000E+00  4.5936815123E+00
                       2.2968407562E+00  1.4793678043E+00  2.2968407562E+00
                       2.2968407562E+00  1.4793678043E+00  6.8905222685E+00
                       3.9876836484E+01  0.0000000000E+00  1.4240158683E+00
                       3.9876836484E+01  0.0000000000E+00  6.0176973806E+00
                       3.1696656440E+00  0.0000000000E+00  3.1696656440E+00
                       3.1696656440E+00  0.0000000000E+00  7.7633471563E+00
                       8.7282488785E-01  1.4793678043E+00  3.7208566245E+00
                       8.7282488785E-01  1.4793678043E+00  8.3145381368E+00
                       3.7208566245E+00  1.4793678043E+00  8.7282488785E-01
                       3.7208566245E+00  1.4793678043E+00  5.4665064002E+00
                       8.7282488785E-01  0.0000000000E+00  1.2833393992E+01
                       8.7282488785E-01  0.0000000000E+00  1.6724116500E+01
                       1.9453612542E+00  1.3755961537E+00  1.4208990146E+01
                       1.9453612542E+00  1.3755961537E+00  1.8099712654E+01
                       1.9453612542E+00 -1.3755961537E+00  1.4208990146E+01
                       1.9453612542E+00 -1.3755961537E+00  1.8099712654E+01
                       0.0000000000E+00  0.0000000000E+00  1.5584533382E+01
                       0.0000000000E+00  0.0000000000E+00  1.9475255890E+01
           xangst12    0.0000000000E+00  0.0000000000E+00  0.0000000000E+00
                       0.0000000000E+00  0.0000000000E+00  4.5936815123E+00
                       2.2968407562E+00  1.4793678043E+00  2.2968407562E+00
                       2.2968407562E+00  1.4793678043E+00  6.8905222685E+00
                       3.9876836484E+01  0.0000000000E+00  1.4240158683E+00
                       3.9876836484E+01  0.0000000000E+00  6.0176973806E+00
                       3.1696656440E+00  0.0000000000E+00  3.1696656440E+00
                       3.1696656440E+00  0.0000000000E+00  7.7633471563E+00
                       8.7282488785E-01  1.4793678043E+00  3.7208566245E+00
                       8.7282488785E-01  1.4793678043E+00  8.3145381368E+00
                       3.7208566245E+00  1.4793678043E+00  8.7282488785E-01
                       3.7208566245E+00  1.4793678043E+00  5.4665064002E+00
                       8.7282488785E-01  0.0000000000E+00  1.2933408484E+01
                       8.7282488785E-01  0.0000000000E+00  1.6824130993E+01
                       1.9453612542E+00  1.3755961537E+00  1.4309004638E+01
                       1.9453612542E+00  1.3755961537E+00  1.8199727146E+01
                       1.9453612542E+00 -1.3755961537E+00  1.4309004638E+01
                       1.9453612542E+00 -1.3755961537E+00  1.8199727146E+01
                       0.0000000000E+00  0.0000000000E+00  1.5684547874E+01
                       0.0000000000E+00  0.0000000000E+00  1.9575270382E+01
           xangst13    0.0000000000E+00  0.0000000000E+00  0.0000000000E+00
                       0.0000000000E+00  0.0000000000E+00  4.5936815123E+00
                       2.2968407562E+00  1.4793678043E+00  2.2968407562E+00
                       2.2968407562E+00  1.4793678043E+00  6.8905222685E+00
                       3.9876836484E+01  0.0000000000E+00  1.4240158683E+00
                       3.9876836484E+01  0.0000000000E+00  6.0176973806E+00
                       3.1696656440E+00  0.0000000000E+00  3.1696656440E+00
                       3.1696656440E+00  0.0000000000E+00  7.7633471563E+00
                       8.7282488785E-01  1.4793678043E+00  3.7208566245E+00
                       8.7282488785E-01  1.4793678043E+00  8.3145381368E+00
                       3.7208566245E+00  1.4793678043E+00  8.7282488785E-01
                       3.7208566245E+00  1.4793678043E+00  5.4665064002E+00
                       8.7282488785E-01  0.0000000000E+00  1.3033422977E+01
                       8.7282488785E-01  0.0000000000E+00  1.6924145485E+01
                       1.9453612542E+00  1.3755961537E+00  1.4409019130E+01
                       1.9453612542E+00  1.3755961537E+00  1.8299741639E+01
                       1.9453612542E+00 -1.3755961537E+00  1.4409019130E+01
                       1.9453612542E+00 -1.3755961537E+00  1.8299741639E+01
                       0.0000000000E+00  0.0000000000E+00  1.5784562366E+01
                       0.0000000000E+00  0.0000000000E+00  1.9675284875E+01
           xangst14    0.0000000000E+00  0.0000000000E+00  0.0000000000E+00
                       0.0000000000E+00  0.0000000000E+00  4.5936815123E+00
                       2.2968407562E+00  1.4793678043E+00  2.2968407562E+00
                       2.2968407562E+00  1.4793678043E+00  6.8905222685E+00
                       3.9876836484E+01  0.0000000000E+00  1.4240158683E+00
                       3.9876836484E+01  0.0000000000E+00  6.0176973806E+00
                       3.1696656440E+00  0.0000000000E+00  3.1696656440E+00
                       3.1696656440E+00  0.0000000000E+00  7.7633471563E+00
                       8.7282488785E-01  1.4793678043E+00  3.7208566245E+00
                       8.7282488785E-01  1.4793678043E+00  8.3145381368E+00
                       3.7208566245E+00  1.4793678043E+00  8.7282488785E-01
                       3.7208566245E+00  1.4793678043E+00  5.4665064002E+00
                       8.7282488785E-01  0.0000000000E+00  1.3133437469E+01
                       8.7282488785E-01  0.0000000000E+00  1.7024159978E+01
                       1.9453612542E+00  1.3755961537E+00  1.4509033623E+01
                       1.9453612542E+00  1.3755961537E+00  1.8399756131E+01
                       1.9453612542E+00 -1.3755961537E+00  1.4509033623E+01
                       1.9453612542E+00 -1.3755961537E+00  1.8399756131E+01
                       0.0000000000E+00  0.0000000000E+00  1.5884576859E+01
                       0.0000000000E+00  0.0000000000E+00  1.9775299367E+01
           xangst15    0.0000000000E+00  0.0000000000E+00  0.0000000000E+00
                       0.0000000000E+00  0.0000000000E+00  4.5936815123E+00
                       2.2968407562E+00  1.4793678043E+00  2.2968407562E+00
                       2.2968407562E+00  1.4793678043E+00  6.8905222685E+00
                       3.9876836484E+01  0.0000000000E+00  1.4240158683E+00
                       3.9876836484E+01  0.0000000000E+00  6.0176973806E+00
                       3.1696656440E+00  0.0000000000E+00  3.1696656440E+00
                       3.1696656440E+00  0.0000000000E+00  7.7633471563E+00
                       8.7282488785E-01  1.4793678043E+00  3.7208566245E+00
                       8.7282488785E-01  1.4793678043E+00  8.3145381368E+00
                       3.7208566245E+00  1.4793678043E+00  8.7282488785E-01
                       3.7208566245E+00  1.4793678043E+00  5.4665064002E+00
                       8.7282488785E-01  0.0000000000E+00  1.3233451962E+01
                       8.7282488785E-01  0.0000000000E+00  1.7124174470E+01
                       1.9453612542E+00  1.3755961537E+00  1.4609048115E+01
                       1.9453612542E+00  1.3755961537E+00  1.8499770624E+01
                       1.9453612542E+00 -1.3755961537E+00  1.4609048115E+01
                       1.9453612542E+00 -1.3755961537E+00  1.8499770624E+01
                       0.0000000000E+00  0.0000000000E+00  1.5984591351E+01
                       0.0000000000E+00  0.0000000000E+00  1.9875313860E+01
            xcart1     0.0000000000E+00  0.0000000000E+00  0.0000000000E+00
                       0.0000000000E+00  0.0000000000E+00  8.6808000000E+00
                       4.3404000000E+00  2.7956000000E+00  4.3404000000E+00
                       4.3404000000E+00  2.7956000000E+00  1.3021200000E+01
                       7.5356300000E+01  0.0000000000E+00  2.6910000000E+00
                       7.5356300000E+01  0.0000000000E+00  1.1371800000E+01
                       5.9898000000E+00  0.0000000000E+00  5.9898000000E+00
                       5.9898000000E+00  0.0000000000E+00  1.4670600000E+01
                       1.6494000000E+00  2.7956000000E+00  7.0314000000E+00
                       1.6494000000E+00  2.7956000000E+00  1.5712200000E+01
                       7.0314000000E+00  2.7956000000E+00  1.6494000000E+00
                       7.0314000000E+00  2.7956000000E+00  1.0330200000E+01
                       1.6494000000E+00  0.0000000000E+00  2.2361600000E+01
                       1.6494000000E+00  0.0000000000E+00  2.9714000000E+01
                       3.6762000000E+00  2.5995000000E+00  2.4961100000E+01
                       3.6762000000E+00  2.5995000000E+00  3.2313500000E+01
                       3.6762000000E+00 -2.5995000000E+00  2.4961100000E+01
                       3.6762000000E+00 -2.5995000000E+00  3.2313500000E+01
                       0.0000000000E+00  0.0000000000E+00  2.7560500000E+01
                       0.0000000000E+00  0.0000000000E+00  3.4912900000E+01
            xcart2     0.0000000000E+00  0.0000000000E+00  0.0000000000E+00
                       0.0000000000E+00  0.0000000000E+00  8.6808000000E+00
                       4.3404000000E+00  2.7956000000E+00  4.3404000000E+00
                       4.3404000000E+00  2.7956000000E+00  1.3021200000E+01
                       7.5356300000E+01  0.0000000000E+00  2.6910000000E+00
                       7.5356300000E+01  0.0000000000E+00  1.1371800000E+01
                       5.9898000000E+00  0.0000000000E+00  5.9898000000E+00
                       5.9898000000E+00  0.0000000000E+00  1.4670600000E+01
                       1.6494000000E+00  2.7956000000E+00  7.0314000000E+00
                       1.6494000000E+00  2.7956000000E+00  1.5712200000E+01
                       7.0314000000E+00  2.7956000000E+00  1.6494000000E+00
                       7.0314000000E+00  2.7956000000E+00  1.0330200000E+01
                       1.6494000000E+00  0.0000000000E+00  2.2550600000E+01
                       1.6494000000E+00  0.0000000000E+00  2.9903000000E+01
                       3.6762000000E+00  2.5995000000E+00  2.5150100000E+01
                       3.6762000000E+00  2.5995000000E+00  3.2502500000E+01
                       3.6762000000E+00 -2.5995000000E+00  2.5150100000E+01
                       3.6762000000E+00 -2.5995000000E+00  3.2502500000E+01
                       0.0000000000E+00  0.0000000000E+00  2.7749500000E+01
                       0.0000000000E+00  0.0000000000E+00  3.5101900000E+01
            xcart3     0.0000000000E+00  0.0000000000E+00  0.0000000000E+00
                       0.0000000000E+00  0.0000000000E+00  8.6808000000E+00
                       4.3404000000E+00  2.7956000000E+00  4.3404000000E+00
                       4.3404000000E+00  2.7956000000E+00  1.3021200000E+01
                       7.5356300000E+01  0.0000000000E+00  2.6910000000E+00
                       7.5356300000E+01  0.0000000000E+00  1.1371800000E+01
                       5.9898000000E+00  0.0000000000E+00  5.9898000000E+00
                       5.9898000000E+00  0.0000000000E+00  1.4670600000E+01
                       1.6494000000E+00  2.7956000000E+00  7.0314000000E+00
                       1.6494000000E+00  2.7956000000E+00  1.5712200000E+01
                       7.0314000000E+00  2.7956000000E+00  1.6494000000E+00
                       7.0314000000E+00  2.7956000000E+00  1.0330200000E+01
                       1.6494000000E+00  0.0000000000E+00  2.2739600000E+01
                       1.6494000000E+00  0.0000000000E+00  3.0092000000E+01
                       3.6762000000E+00  2.5995000000E+00  2.5339100000E+01
                       3.6762000000E+00  2.5995000000E+00  3.2691500000E+01
                       3.6762000000E+00 -2.5995000000E+00  2.5339100000E+01
                       3.6762000000E+00 -2.5995000000E+00  3.2691500000E+01
                       0.0000000000E+00  0.0000000000E+00  2.7938500000E+01
                       0.0000000000E+00  0.0000000000E+00  3.5290900000E+01
            xcart4     0.0000000000E+00  0.0000000000E+00  0.0000000000E+00
                       0.0000000000E+00  0.0000000000E+00  8.6808000000E+00
                       4.3404000000E+00  2.7956000000E+00  4.3404000000E+00
                       4.3404000000E+00  2.7956000000E+00  1.3021200000E+01
                       7.5356300000E+01  0.0000000000E+00  2.6910000000E+00
                       7.5356300000E+01  0.0000000000E+00  1.1371800000E+01
                       5.9898000000E+00  0.0000000000E+00  5.9898000000E+00
                       5.9898000000E+00  0.0000000000E+00  1.4670600000E+01
                       1.6494000000E+00  2.7956000000E+00  7.0314000000E+00
                       1.6494000000E+00  2.7956000000E+00  1.5712200000E+01
                       7.0314000000E+00  2.7956000000E+00  1.6494000000E+00
                       7.0314000000E+00  2.7956000000E+00  1.0330200000E+01
                       1.6494000000E+00  0.0000000000E+00  2.2928600000E+01
                       1.6494000000E+00  0.0000000000E+00  3.0281000000E+01
                       3.6762000000E+00  2.5995000000E+00  2.5528100000E+01
                       3.6762000000E+00  2.5995000000E+00  3.2880500000E+01
                       3.6762000000E+00 -2.5995000000E+00  2.5528100000E+01
                       3.6762000000E+00 -2.5995000000E+00  3.2880500000E+01
                       0.0000000000E+00  0.0000000000E+00  2.8127500000E+01
                       0.0000000000E+00  0.0000000000E+00  3.5479900000E+01
            xcart5     0.0000000000E+00  0.0000000000E+00  0.0000000000E+00
                       0.0000000000E+00  0.0000000000E+00  8.6808000000E+00
                       4.3404000000E+00  2.7956000000E+00  4.3404000000E+00
                       4.3404000000E+00  2.7956000000E+00  1.3021200000E+01
                       7.5356300000E+01  0.0000000000E+00  2.6910000000E+00
                       7.5356300000E+01  0.0000000000E+00  1.1371800000E+01
                       5.9898000000E+00  0.0000000000E+00  5.9898000000E+00
                       5.9898000000E+00  0.0000000000E+00  1.4670600000E+01
                       1.6494000000E+00  2.7956000000E+00  7.0314000000E+00
                       1.6494000000E+00  2.7956000000E+00  1.5712200000E+01
                       7.0314000000E+00  2.7956000000E+00  1.6494000000E+00
                       7.0314000000E+00  2.7956000000E+00  1.0330200000E+01
                       1.6494000000E+00  0.0000000000E+00  2.3117600000E+01
                       1.6494000000E+00  0.0000000000E+00  3.0470000000E+01
                       3.6762000000E+00  2.5995000000E+00  2.5717100000E+01
                       3.6762000000E+00  2.5995000000E+00  3.3069500000E+01
                       3.6762000000E+00 -2.5995000000E+00  2.5717100000E+01
                       3.6762000000E+00 -2.5995000000E+00  3.3069500000E+01
                       0.0000000000E+00  0.0000000000E+00  2.8316500000E+01
                       0.0000000000E+00  0.0000000000E+00  3.5668900000E+01
            xcart6     0.0000000000E+00  0.0000000000E+00  0.0000000000E+00
                       0.0000000000E+00  0.0000000000E+00  8.6808000000E+00
                       4.3404000000E+00  2.7956000000E+00  4.3404000000E+00
                       4.3404000000E+00  2.7956000000E+00  1.3021200000E+01
                       7.5356300000E+01  0.0000000000E+00  2.6910000000E+00
                       7.5356300000E+01  0.0000000000E+00  1.1371800000E+01
                       5.9898000000E+00  0.0000000000E+00  5.9898000000E+00
                       5.9898000000E+00  0.0000000000E+00  1.4670600000E+01
                       1.6494000000E+00  2.7956000000E+00  7.0314000000E+00
                       1.6494000000E+00  2.7956000000E+00  1.5712200000E+01
                       7.0314000000E+00  2.7956000000E+00  1.6494000000E+00
                       7.0314000000E+00  2.7956000000E+00  1.0330200000E+01
                       1.6494000000E+00  0.0000000000E+00  2.3306600000E+01
                       1.6494000000E+00  0.0000000000E+00  3.0659000000E+01
                       3.6762000000E+00  2.5995000000E+00  2.5906100000E+01
                       3.6762000000E+00  2.5995000000E+00  3.3258500000E+01
                       3.6762000000E+00 -2.5995000000E+00  2.5906100000E+01
                       3.6762000000E+00 -2.5995000000E+00  3.3258500000E+01
                       0.0000000000E+00  0.0000000000E+00  2.8505500000E+01
                       0.0000000000E+00  0.0000000000E+00  3.5857900000E+01
            xcart7     0.0000000000E+00  0.0000000000E+00  0.0000000000E+00
                       0.0000000000E+00  0.0000000000E+00  8.6808000000E+00
                       4.3404000000E+00  2.7956000000E+00  4.3404000000E+00
                       4.3404000000E+00  2.7956000000E+00  1.3021200000E+01
                       7.5356300000E+01  0.0000000000E+00  2.6910000000E+00
                       7.5356300000E+01  0.0000000000E+00  1.1371800000E+01
                       5.9898000000E+00  0.0000000000E+00  5.9898000000E+00
                       5.9898000000E+00  0.0000000000E+00  1.4670600000E+01
                       1.6494000000E+00  2.7956000000E+00  7.0314000000E+00
                       1.6494000000E+00  2.7956000000E+00  1.5712200000E+01
                       7.0314000000E+00  2.7956000000E+00  1.6494000000E+00
                       7.0314000000E+00  2.7956000000E+00  1.0330200000E+01
                       1.6494000000E+00  0.0000000000E+00  2.3495600000E+01
                       1.6494000000E+00  0.0000000000E+00  3.0848000000E+01
                       3.6762000000E+00  2.5995000000E+00  2.6095100000E+01
                       3.6762000000E+00  2.5995000000E+00  3.3447500000E+01
                       3.6762000000E+00 -2.5995000000E+00  2.6095100000E+01
                       3.6762000000E+00 -2.5995000000E+00  3.3447500000E+01
                       0.0000000000E+00  0.0000000000E+00  2.8694500000E+01
                       0.0000000000E+00  0.0000000000E+00  3.6046900000E+01
            xcart8     0.0000000000E+00  0.0000000000E+00  0.0000000000E+00
                       0.0000000000E+00  0.0000000000E+00  8.6808000000E+00
                       4.3404000000E+00  2.7956000000E+00  4.3404000000E+00
                       4.3404000000E+00  2.7956000000E+00  1.3021200000E+01
                       7.5356300000E+01  0.0000000000E+00  2.6910000000E+00
                       7.5356300000E+01  0.0000000000E+00  1.1371800000E+01
                       5.9898000000E+00  0.0000000000E+00  5.9898000000E+00
                       5.9898000000E+00  0.0000000000E+00  1.4670600000E+01
                       1.6494000000E+00  2.7956000000E+00  7.0314000000E+00
                       1.6494000000E+00  2.7956000000E+00  1.5712200000E+01
                       7.0314000000E+00  2.7956000000E+00  1.6494000000E+00
                       7.0314000000E+00  2.7956000000E+00  1.0330200000E+01
                       1.6494000000E+00  0.0000000000E+00  2.3684600000E+01
                       1.6494000000E+00  0.0000000000E+00  3.1037000000E+01
                       3.6762000000E+00  2.5995000000E+00  2.6284100000E+01
                       3.6762000000E+00  2.5995000000E+00  3.3636500000E+01
                       3.6762000000E+00 -2.5995000000E+00  2.6284100000E+01
                       3.6762000000E+00 -2.5995000000E+00  3.3636500000E+01
                       0.0000000000E+00  0.0000000000E+00  2.8883500000E+01
                       0.0000000000E+00  0.0000000000E+00  3.6235900000E+01
            xcart9     0.0000000000E+00  0.0000000000E+00  0.0000000000E+00
                       0.0000000000E+00  0.0000000000E+00  8.6808000000E+00
                       4.3404000000E+00  2.7956000000E+00  4.3404000000E+00
                       4.3404000000E+00  2.7956000000E+00  1.3021200000E+01
                       7.5356300000E+01  0.0000000000E+00  2.6910000000E+00
                       7.5356300000E+01  0.0000000000E+00  1.1371800000E+01
                       5.9898000000E+00  0.0000000000E+00  5.9898000000E+00
                       5.9898000000E+00  0.0000000000E+00  1.4670600000E+01
                       1.6494000000E+00  2.7956000000E+00  7.0314000000E+00
                       1.6494000000E+00  2.7956000000E+00  1.5712200000E+01
                       7.0314000000E+00  2.7956000000E+00  1.6494000000E+00
                       7.0314000000E+00  2.7956000000E+00  1.0330200000E+01
                       1.6494000000E+00  0.0000000000E+00  2.3873600000E+01
                       1.6494000000E+00  0.0000000000E+00  3.1226000000E+01
                       3.6762000000E+00  2.5995000000E+00  2.6473100000E+01
                       3.6762000000E+00  2.5995000000E+00  3.3825500000E+01
                       3.6762000000E+00 -2.5995000000E+00  2.6473100000E+01
                       3.6762000000E+00 -2.5995000000E+00  3.3825500000E+01
                       0.0000000000E+00  0.0000000000E+00  2.9072500000E+01
                       0.0000000000E+00  0.0000000000E+00  3.6424900000E+01
            xcart10    0.0000000000E+00  0.0000000000E+00  0.0000000000E+00
                       0.0000000000E+00  0.0000000000E+00  8.6808000000E+00
                       4.3404000000E+00  2.7956000000E+00  4.3404000000E+00
                       4.3404000000E+00  2.7956000000E+00  1.3021200000E+01
                       7.5356300000E+01  0.0000000000E+00  2.6910000000E+00
                       7.5356300000E+01  0.0000000000E+00  1.1371800000E+01
                       5.9898000000E+00  0.0000000000E+00  5.9898000000E+00
                       5.9898000000E+00  0.0000000000E+00  1.4670600000E+01
                       1.6494000000E+00  2.7956000000E+00  7.0314000000E+00
                       1.6494000000E+00  2.7956000000E+00  1.5712200000E+01
                       7.0314000000E+00  2.7956000000E+00  1.6494000000E+00
                       7.0314000000E+00  2.7956000000E+00  1.0330200000E+01
                       1.6494000000E+00  0.0000000000E+00  2.4062600000E+01
                       1.6494000000E+00  0.0000000000E+00  3.1415000000E+01
                       3.6762000000E+00  2.5995000000E+00  2.6662100000E+01
                       3.6762000000E+00  2.5995000000E+00  3.4014500000E+01
                       3.6762000000E+00 -2.5995000000E+00  2.6662100000E+01
                       3.6762000000E+00 -2.5995000000E+00  3.4014500000E+01
                       0.0000000000E+00  0.0000000000E+00  2.9261500000E+01
                       0.0000000000E+00  0.0000000000E+00  3.6613900000E+01
            xcart11    0.0000000000E+00  0.0000000000E+00  0.0000000000E+00
                       0.0000000000E+00  0.0000000000E+00  8.6808000000E+00
                       4.3404000000E+00  2.7956000000E+00  4.3404000000E+00
                       4.3404000000E+00  2.7956000000E+00  1.3021200000E+01
                       7.5356300000E+01  0.0000000000E+00  2.6910000000E+00
                       7.5356300000E+01  0.0000000000E+00  1.1371800000E+01
                       5.9898000000E+00  0.0000000000E+00  5.9898000000E+00
                       5.9898000000E+00  0.0000000000E+00  1.4670600000E+01
                       1.6494000000E+00  2.7956000000E+00  7.0314000000E+00
                       1.6494000000E+00  2.7956000000E+00  1.5712200000E+01
                       7.0314000000E+00  2.7956000000E+00  1.6494000000E+00
                       7.0314000000E+00  2.7956000000E+00  1.0330200000E+01
                       1.6494000000E+00  0.0000000000E+00  2.4251600000E+01
                       1.6494000000E+00  0.0000000000E+00  3.1604000000E+01
                       3.6762000000E+00  2.5995000000E+00  2.6851100000E+01
                       3.6762000000E+00  2.5995000000E+00  3.4203500000E+01
                       3.6762000000E+00 -2.5995000000E+00  2.6851100000E+01
                       3.6762000000E+00 -2.5995000000E+00  3.4203500000E+01
                       0.0000000000E+00  0.0000000000E+00  2.9450500000E+01
                       0.0000000000E+00  0.0000000000E+00  3.6802900000E+01
            xcart12    0.0000000000E+00  0.0000000000E+00  0.0000000000E+00
                       0.0000000000E+00  0.0000000000E+00  8.6808000000E+00
                       4.3404000000E+00  2.7956000000E+00  4.3404000000E+00
                       4.3404000000E+00  2.7956000000E+00  1.3021200000E+01
                       7.5356300000E+01  0.0000000000E+00  2.6910000000E+00
                       7.5356300000E+01  0.0000000000E+00  1.1371800000E+01
                       5.9898000000E+00  0.0000000000E+00  5.9898000000E+00
                       5.9898000000E+00  0.0000000000E+00  1.4670600000E+01
                       1.6494000000E+00  2.7956000000E+00  7.0314000000E+00
                       1.6494000000E+00  2.7956000000E+00  1.5712200000E+01
                       7.0314000000E+00  2.7956000000E+00  1.6494000000E+00
                       7.0314000000E+00  2.7956000000E+00  1.0330200000E+01
                       1.6494000000E+00  0.0000000000E+00  2.4440600000E+01
                       1.6494000000E+00  0.0000000000E+00  3.1793000000E+01
                       3.6762000000E+00  2.5995000000E+00  2.7040100000E+01
                       3.6762000000E+00  2.5995000000E+00  3.4392500000E+01
                       3.6762000000E+00 -2.5995000000E+00  2.7040100000E+01
                       3.6762000000E+00 -2.5995000000E+00  3.4392500000E+01
                       0.0000000000E+00  0.0000000000E+00  2.9639500000E+01
                       0.0000000000E+00  0.0000000000E+00  3.6991900000E+01
            xcart13    0.0000000000E+00  0.0000000000E+00  0.0000000000E+00
                       0.0000000000E+00  0.0000000000E+00  8.6808000000E+00
                       4.3404000000E+00  2.7956000000E+00  4.3404000000E+00
                       4.3404000000E+00  2.7956000000E+00  1.3021200000E+01
                       7.5356300000E+01  0.0000000000E+00  2.6910000000E+00
                       7.5356300000E+01  0.0000000000E+00  1.1371800000E+01
                       5.9898000000E+00  0.0000000000E+00  5.9898000000E+00
                       5.9898000000E+00  0.0000000000E+00  1.4670600000E+01
                       1.6494000000E+00  2.7956000000E+00  7.0314000000E+00
                       1.6494000000E+00  2.7956000000E+00  1.5712200000E+01
                       7.0314000000E+00  2.7956000000E+00  1.6494000000E+00
                       7.0314000000E+00  2.7956000000E+00  1.0330200000E+01
                       1.6494000000E+00  0.0000000000E+00  2.4629600000E+01
                       1.6494000000E+00  0.0000000000E+00  3.1982000000E+01
                       3.6762000000E+00  2.5995000000E+00  2.7229100000E+01
                       3.6762000000E+00  2.5995000000E+00  3.4581500000E+01
                       3.6762000000E+00 -2.5995000000E+00  2.7229100000E+01
                       3.6762000000E+00 -2.5995000000E+00  3.4581500000E+01
                       0.0000000000E+00  0.0000000000E+00  2.9828500000E+01
                       0.0000000000E+00  0.0000000000E+00  3.7180900000E+01
            xcart14    0.0000000000E+00  0.0000000000E+00  0.0000000000E+00
                       0.0000000000E+00  0.0000000000E+00  8.6808000000E+00
                       4.3404000000E+00  2.7956000000E+00  4.3404000000E+00
                       4.3404000000E+00  2.7956000000E+00  1.3021200000E+01
                       7.5356300000E+01  0.0000000000E+00  2.6910000000E+00
                       7.5356300000E+01  0.0000000000E+00  1.1371800000E+01
                       5.9898000000E+00  0.0000000000E+00  5.9898000000E+00
                       5.9898000000E+00  0.0000000000E+00  1.4670600000E+01
                       1.6494000000E+00  2.7956000000E+00  7.0314000000E+00
                       1.6494000000E+00  2.7956000000E+00  1.5712200000E+01
                       7.0314000000E+00  2.7956000000E+00  1.6494000000E+00
                       7.0314000000E+00  2.7956000000E+00  1.0330200000E+01
                       1.6494000000E+00  0.0000000000E+00  2.4818600000E+01
                       1.6494000000E+00  0.0000000000E+00  3.2171000000E+01
                       3.6762000000E+00  2.5995000000E+00  2.7418100000E+01
                       3.6762000000E+00  2.5995000000E+00  3.4770500000E+01
                       3.6762000000E+00 -2.5995000000E+00  2.7418100000E+01
                       3.6762000000E+00 -2.5995000000E+00  3.4770500000E+01
                       0.0000000000E+00  0.0000000000E+00  3.0017500000E+01
                       0.0000000000E+00  0.0000000000E+00  3.7369900000E+01
            xcart15    0.0000000000E+00  0.0000000000E+00  0.0000000000E+00
                       0.0000000000E+00  0.0000000000E+00  8.6808000000E+00
                       4.3404000000E+00  2.7956000000E+00  4.3404000000E+00
                       4.3404000000E+00  2.7956000000E+00  1.3021200000E+01
                       7.5356300000E+01  0.0000000000E+00  2.6910000000E+00
                       7.5356300000E+01  0.0000000000E+00  1.1371800000E+01
                       5.9898000000E+00  0.0000000000E+00  5.9898000000E+00
                       5.9898000000E+00  0.0000000000E+00  1.4670600000E+01
                       1.6494000000E+00  2.7956000000E+00  7.0314000000E+00
                       1.6494000000E+00  2.7956000000E+00  1.5712200000E+01
                       7.0314000000E+00  2.7956000000E+00  1.6494000000E+00
                       7.0314000000E+00  2.7956000000E+00  1.0330200000E+01
                       1.6494000000E+00  0.0000000000E+00  2.5007600000E+01
                       1.6494000000E+00  0.0000000000E+00  3.2360000000E+01
                       3.6762000000E+00  2.5995000000E+00  2.7607100000E+01
                       3.6762000000E+00  2.5995000000E+00  3.4959500000E+01
                       3.6762000000E+00 -2.5995000000E+00  2.7607100000E+01
                       3.6762000000E+00 -2.5995000000E+00  3.4959500000E+01
                       0.0000000000E+00  0.0000000000E+00  3.0206500000E+01
                       0.0000000000E+00  0.0000000000E+00  3.7558900000E+01
             xred1     0.0000000000E+00  0.0000000000E+00  0.0000000000E+00
                       0.0000000000E+00  0.0000000000E+00  1.9290666667E-01
                       5.0000000000E-01  3.2204405124E-01  9.6453333333E-02
                       5.0000000000E-01  3.2204405124E-01  2.8936000000E-01
                       8.6808013086E+00  0.0000000000E+00  5.9800000000E-02
                       8.6808013086E+00  0.0000000000E+00  2.5270666667E-01
                       6.9000552944E-01  0.0000000000E+00  1.3310666667E-01
                       6.9000552944E-01  0.0000000000E+00  3.2601333333E-01
                       1.9000552944E-01  3.2204405124E-01  1.5625333333E-01
                       1.9000552944E-01  3.2204405124E-01  3.4916000000E-01
                       8.0999447056E-01  3.2204405124E-01  3.6653333333E-02
                       8.0999447056E-01  3.2204405124E-01  2.2956000000E-01
                       1.9000552944E-01  0.0000000000E+00  4.9692444444E-01
                       1.9000552944E-01  0.0000000000E+00  6.6031111111E-01
                       4.2348631463E-01  2.9945396738E-01  5.5469111111E-01
                       4.2348631463E-01  2.9945396738E-01  7.1807777778E-01
                       4.2348631463E-01 -2.9945396738E-01  5.5469111111E-01
                       4.2348631463E-01 -2.9945396738E-01  7.1807777778E-01
                       0.0000000000E+00  0.0000000000E+00  6.1245555556E-01
                       0.0000000000E+00  0.0000000000E+00  7.7584222222E-01
             xred2     0.0000000000E+00  0.0000000000E+00  0.0000000000E+00
                       0.0000000000E+00  0.0000000000E+00  1.9209984731E-01
                       5.0000000000E-01  3.2204405124E-01  9.6049923654E-02
                       5.0000000000E-01  3.2204405124E-01  2.8814977096E-01
                       8.6808013086E+00  0.0000000000E+00  5.9549890460E-02
                       8.6808013086E+00  0.0000000000E+00  2.5164973777E-01
                       6.9000552944E-01  0.0000000000E+00  1.3254995685E-01
                       6.9000552944E-01  0.0000000000E+00  3.2464980416E-01
                       1.9000552944E-01  3.2204405124E-01  1.5559981411E-01
                       1.9000552944E-01  3.2204405124E-01  3.4769966142E-01
                       8.0999447056E-01  3.2204405124E-01  3.6500033194E-02
                       8.0999447056E-01  3.2204405124E-01  2.2859988050E-01
                       1.9000552944E-01  0.0000000000E+00  4.9902852464E-01
                       1.9000552944E-01  0.0000000000E+00  6.6173183739E-01
                       4.2348631463E-01  2.9945396738E-01  5.5655358605E-01
                       4.2348631463E-01  2.9945396738E-01  7.1925689880E-01
                       4.2348631463E-01 -2.9945396738E-01  5.5655358605E-01
                       4.2348631463E-01 -2.9945396738E-01  7.1925689880E-01
                       0.0000000000E+00  0.0000000000E+00  6.1407643453E-01
                       0.0000000000E+00  0.0000000000E+00  7.7677974728E-01
             xred3     0.0000000000E+00  0.0000000000E+00  0.0000000000E+00
                       0.0000000000E+00  0.0000000000E+00  1.9129974878E-01
                       5.0000000000E-01  3.2204405124E-01  9.5649874388E-02
                       5.0000000000E-01  3.2204405124E-01  2.8694962317E-01
                       8.6808013086E+00  0.0000000000E+00  5.9301864340E-02
                       8.6808013086E+00  0.0000000000E+00  2.5060161312E-01
                       6.9000552944E-01  0.0000000000E+00  1.3199788444E-01
                       6.9000552944E-01  0.0000000000E+00  3.2329763321E-01
                       1.9000552944E-01  3.2204405124E-01  1.5495173873E-01
                       1.9000552944E-01  3.2204405124E-01  3.4625148750E-01
                       8.0999447056E-01  3.2204405124E-01  3.6348010049E-02
                       8.0999447056E-01  3.2204405124E-01  2.2764775883E-01
                       1.9000552944E-01  0.0000000000E+00  5.0111507779E-01
                       1.9000552944E-01  0.0000000000E+00  6.6314072899E-01
                       4.2348631463E-01  2.9945396738E-01  5.5840054652E-01
                       4.2348631463E-01  2.9945396738E-01  7.2042619772E-01
                       4.2348631463E-01 -2.9945396738E-01  5.5840054652E-01
                       4.2348631463E-01 -2.9945396738E-01  7.2042619772E-01
                       0.0000000000E+00  0.0000000000E+00  6.1568381154E-01
                       0.0000000000E+00  0.0000000000E+00  7.7770946274E-01
             xred4     0.0000000000E+00  0.0000000000E+00  0.0000000000E+00
                       0.0000000000E+00  0.0000000000E+00  1.9050628744E-01
                       5.0000000000E-01  3.2204405124E-01  9.5253143722E-02
                       5.0000000000E-01  3.2204405124E-01  2.8575943117E-01
                       8.6808013086E+00  0.0000000000E+00  5.9055895714E-02
                       8.6808013086E+00  0.0000000000E+00  2.4956218316E-01
                       6.9000552944E-01  0.0000000000E+00  1.3145039173E-01
                       6.9000552944E-01  0.0000000000E+00  3.2195667918E-01
                       1.9000552944E-01  3.2204405124E-01  1.5430903944E-01
                       1.9000552944E-01  3.2204405124E-01  3.4481532688E-01
                       8.0999447056E-01  3.2204405124E-01  3.6197248008E-02
                       8.0999447056E-01  3.2204405124E-01  2.2670353545E-01
                       1.9000552944E-01  0.0000000000E+00  5.0318432199E-01
                       1.9000552944E-01  0.0000000000E+00  6.6453793315E-01
                       4.2348631463E-01  2.9945396738E-01  5.6023218557E-01
                       4.2348631463E-01  2.9945396738E-01  7.2158579674E-01
                       4.2348631463E-01 -2.9945396738E-01  5.6023218557E-01
                       4.2348631463E-01 -2.9945396738E-01  7.2158579674E-01
                       0.0000000000E+00  0.0000000000E+00  6.1727785459E-01
                       0.0000000000E+00  0.0000000000E+00  7.7863146575E-01
             xred5     0.0000000000E+00  0.0000000000E+00  0.0000000000E+00
                       0.0000000000E+00  0.0000000000E+00  1.8971938106E-01
                       5.0000000000E-01  3.2204405124E-01  9.4859690532E-02
                       5.0000000000E-01  3.2204405124E-01  2.8457907160E-01
                       8.6808013086E+00  0.0000000000E+00  5.8811959087E-02
                       8.6808013086E+00  0.0000000000E+00  2.4853134015E-01
                       6.9000552944E-01  0.0000000000E+00  1.3090742198E-01
                       6.9000552944E-01  0.0000000000E+00  3.2062680304E-01
                       1.9000552944E-01  3.2204405124E-01  1.5367164962E-01
                       1.9000552944E-01  3.2204405124E-01  3.4339103068E-01
                       8.0999447056E-01  3.2204405124E-01  3.6047731445E-02
                       8.0999447056E-01  3.2204405124E-01  2.2576711251E-01
                       1.9000552944E-01  0.0000000000E+00  5.0523647172E-01
                       1.9000552944E-01  0.0000000000E+00  6.6592359472E-01
                       4.2348631463E-01  2.9945396738E-01  5.6204869307E-01
                       4.2348631463E-01  2.9945396738E-01  7.2273581607E-01
                       4.2348631463E-01 -2.9945396738E-01  5.6204869307E-01
                       4.2348631463E-01 -2.9945396738E-01  7.2273581607E-01
                       0.0000000000E+00  0.0000000000E+00  6.1885872891E-01
                       0.0000000000E+00  0.0000000000E+00  7.7954585191E-01
             xred6     0.0000000000E+00  0.0000000000E+00  0.0000000000E+00
                       0.0000000000E+00  0.0000000000E+00  1.8893894874E-01
                       5.0000000000E-01  3.2204405124E-01  9.4469474372E-02
                       5.0000000000E-01  3.2204405124E-01  2.8340842311E-01
                       8.6808013086E+00  0.0000000000E+00  5.8570029383E-02
                       8.6808013086E+00  0.0000000000E+00  2.4750897813E-01
                       6.9000552944E-01  0.0000000000E+00  1.3036891936E-01
                       6.9000552944E-01  0.0000000000E+00  3.1930786810E-01
                       1.9000552944E-01  3.2204405124E-01  1.5303950375E-01
                       1.9000552944E-01  3.2204405124E-01  3.4197845250E-01
                       8.0999447056E-01  3.2204405124E-01  3.5899444989E-02
                       8.0999447056E-01  3.2204405124E-01  2.2483839373E-01
                       1.9000552944E-01  0.0000000000E+00  5.0727173795E-01
                       1.9000552944E-01  0.0000000000E+00  6.6729785613E-01
                       4.2348631463E-01  2.9945396738E-01  5.6385025574E-01
                       4.2348631463E-01  2.9945396738E-01  7.2387637393E-01
                       4.2348631463E-01 -2.9945396738E-01  5.6385025574E-01
                       4.2348631463E-01 -2.9945396738E-01  7.2387637393E-01
                       0.0000000000E+00  0.0000000000E+00  6.2042659702E-01
                       0.0000000000E+00  0.0000000000E+00  7.8045271520E-01
             xred7     0.0000000000E+00  0.0000000000E+00  0.0000000000E+00
                       0.0000000000E+00  0.0000000000E+00  1.8816491091E-01
                       5.0000000000E-01  3.2204405124E-01  9.4082455456E-02
                       5.0000000000E-01  3.2204405124E-01  2.8224736637E-01
                       8.6808013086E+00  0.0000000000E+00  5.8330081935E-02
                       8.6808013086E+00  0.0000000000E+00  2.4649499285E-01
                       6.9000552944E-01  0.0000000000E+00  1.2983482898E-01
                       6.9000552944E-01  0.0000000000E+00  3.1799973989E-01
                       1.9000552944E-01  3.2204405124E-01  1.5241253739E-01
                       1.9000552944E-01  3.2204405124E-01  3.4057744830E-01
                       8.0999447056E-01  3.2204405124E-01  3.5752373521E-02
                       8.0999447056E-01  3.2204405124E-01  2.2391728443E-01
                       1.9000552944E-01  0.0000000000E+00  5.0929032817E-01
                       1.9000552944E-01  0.0000000000E+00  6.6866085750E-01
                       4.2348631463E-01  2.9945396738E-01  5.6563705727E-01
                       4.2348631463E-01  2.9945396738E-01  7.2500758660E-01
                       4.2348631463E-01 -2.9945396738E-01  5.6563705727E-01
                       4.2348631463E-01 -2.9945396738E-01  7.2500758660E-01
                       0.0000000000E+00  0.0000000000E+00  6.2198161876E-01
                       0.0000000000E+00  0.0000000000E+00  7.8135214809E-01
             xred8     0.0000000000E+00  0.0000000000E+00  0.0000000000E+00
                       0.0000000000E+00  0.0000000000E+00  1.8739718930E-01
                       5.0000000000E-01  3.2204405124E-01  9.3698594651E-02
                       5.0000000000E-01  3.2204405124E-01  2.8109578395E-01
                       8.6808013086E+00  0.0000000000E+00  5.8092092481E-02
                       8.6808013086E+00  0.0000000000E+00  2.4548928178E-01
                       6.9000552944E-01  0.0000000000E+00  1.2930509682E-01
                       6.9000552944E-01  0.0000000000E+00  3.1670228612E-01
[...]
                       4.2348631463E-01  2.9945396738E-01  5.6563705727E-01
                       4.2348631463E-01  2.9945396738E-01  7.2500758660E-01
                       4.2348631463E-01 -2.9945396738E-01  5.6563705727E-01
                       4.2348631463E-01 -2.9945396738E-01  7.2500758660E-01
                       0.0000000000E+00  0.0000000000E+00  6.2198161876E-01
                       0.0000000000E+00  0.0000000000E+00  7.8135214809E-01
             xred8     0.0000000000E+00  0.0000000000E+00  0.0000000000E+00
                       0.0000000000E+00  0.0000000000E+00  1.8739718930E-01
                       5.0000000000E-01  3.2204405124E-01  9.3698594651E-02
                       5.0000000000E-01  3.2204405124E-01  2.8109578395E-01
                       8.6808013086E+00  0.0000000000E+00  5.8092092481E-02
                       8.6808013086E+00  0.0000000000E+00  2.4548928178E-01
                       6.9000552944E-01  0.0000000000E+00  1.2930509682E-01
                       6.9000552944E-01  0.0000000000E+00  3.1670228612E-01
                       1.9000552944E-01  3.2204405124E-01  1.5179068713E-01
                       1.9000552944E-01  3.2204405124E-01  3.3918787643E-01
                       8.0999447056E-01  3.2204405124E-01  3.5606502170E-02
                       8.0999447056E-01  3.2204405124E-01  2.2300369147E-01
                       1.9000552944E-01  0.0000000000E+00  5.1129244652E-01
                       1.9000552944E-01  0.0000000000E+00  6.7001273665E-01
                       4.2348631463E-01  2.9945396738E-01  5.6740927833E-01
                       4.2348631463E-01  2.9945396738E-01  7.2612956846E-01
                       4.2348631463E-01 -2.9945396738E-01  5.6740927833E-01
                       4.2348631463E-01 -2.9945396738E-01  7.2612956846E-01
                       0.0000000000E+00  0.0000000000E+00  6.2352395138E-01
                       0.0000000000E+00  0.0000000000E+00  7.8224424152E-01
             xred9     0.0000000000E+00  0.0000000000E+00  0.0000000000E+00
                       0.0000000000E+00  0.0000000000E+00  1.8663570691E-01
                       5.0000000000E-01  3.2204405124E-01  9.3317853457E-02
                       5.0000000000E-01  3.2204405124E-01  2.7995356037E-01
                       8.6808013086E+00  0.0000000000E+00  5.7856037152E-02
                       8.6808013086E+00  0.0000000000E+00  2.4449174407E-01
                       6.9000552944E-01  0.0000000000E+00  1.2877966976E-01
                       6.9000552944E-01  0.0000000000E+00  3.1541537668E-01
                       1.9000552944E-01  3.2204405124E-01  1.5117389061E-01
                       1.9000552944E-01  3.2204405124E-01  3.3780959752E-01
                       8.0999447056E-01  3.2204405124E-01  3.5461816305E-02
                       8.0999447056E-01  3.2204405124E-01  2.2209752322E-01
                       1.9000552944E-01  0.0000000000E+00  5.1327829377E-01
                       1.9000552944E-01  0.0000000000E+00  6.7135362917E-01
                       4.2348631463E-01  2.9945396738E-01  5.6916709666E-01
                       4.2348631463E-01  2.9945396738E-01  7.2724243206E-01
                       4.2348631463E-01 -2.9945396738E-01  5.6916709666E-01
                       4.2348631463E-01 -2.9945396738E-01  7.2724243206E-01
                       0.0000000000E+00  0.0000000000E+00  6.2505374957E-01
                       0.0000000000E+00  0.0000000000E+00  7.8312908497E-01
             xred10    0.0000000000E+00  0.0000000000E+00  0.0000000000E+00
                       0.0000000000E+00  0.0000000000E+00  1.8588038800E-01
                       5.0000000000E-01  3.2204405124E-01  9.2940194000E-02
                       5.0000000000E-01  3.2204405124E-01  2.7882058200E-01
                       8.6808013086E+00  0.0000000000E+00  5.7621892465E-02
                       8.6808013086E+00  0.0000000000E+00  2.4350228047E-01
                       6.9000552944E-01  0.0000000000E+00  1.2825849554E-01
                       6.9000552944E-01  0.0000000000E+00  3.1413888354E-01
                       1.9000552944E-01  3.2204405124E-01  1.5056208646E-01
                       1.9000552944E-01  3.2204405124E-01  3.3644247447E-01
                       8.0999447056E-01  3.2204405124E-01  3.5318301535E-02
                       8.0999447056E-01  3.2204405124E-01  2.2119868954E-01
                       1.9000552944E-01  0.0000000000E+00  5.1524806749E-01
                       1.9000552944E-01  0.0000000000E+00  6.7268366844E-01
                       4.2348631463E-01  2.9945396738E-01  5.7091068714E-01
                       4.2348631463E-01  2.9945396738E-01  7.2834628809E-01
                       4.2348631463E-01 -2.9945396738E-01  5.7091068714E-01
                       4.2348631463E-01 -2.9945396738E-01  7.2834628809E-01
                       0.0000000000E+00  0.0000000000E+00  6.2657116550E-01
                       0.0000000000E+00  0.0000000000E+00  7.8400676645E-01
             xred11    0.0000000000E+00  0.0000000000E+00  0.0000000000E+00
                       0.0000000000E+00  0.0000000000E+00  1.8513115803E-01
                       5.0000000000E-01  3.2204405124E-01  9.2565579015E-02
                       5.0000000000E-01  3.2204405124E-01  2.7769673704E-01
                       8.6808013086E+00  0.0000000000E+00  5.7389635317E-02
                       8.6808013086E+00  0.0000000000E+00  2.4252079335E-01
                       6.9000552944E-01  0.0000000000E+00  1.2774152271E-01
                       6.9000552944E-01  0.0000000000E+00  3.1287268074E-01
                       1.9000552944E-01  3.2204405124E-01  1.4995521433E-01
                       1.9000552944E-01  3.2204405124E-01  3.3508637236E-01
                       8.0999447056E-01  3.2204405124E-01  3.5175943698E-02
                       8.0999447056E-01  3.2204405124E-01  2.2030710173E-01
                       1.9000552944E-01  0.0000000000E+00  5.1720196204E-01
                       1.9000552944E-01  0.0000000000E+00  6.7400298571E-01
                       4.2348631463E-01  2.9945396738E-01  5.7264022180E-01
                       4.2348631463E-01  2.9945396738E-01  7.2944124547E-01
                       4.2348631463E-01 -2.9945396738E-01  5.7264022180E-01
                       4.2348631463E-01 -2.9945396738E-01  7.2944124547E-01
                       0.0000000000E+00  0.0000000000E+00  6.2807634890E-01
                       0.0000000000E+00  0.0000000000E+00  7.8487737257E-01
             xred12    0.0000000000E+00  0.0000000000E+00  0.0000000000E+00
                       0.0000000000E+00  0.0000000000E+00  1.8438794367E-01
                       5.0000000000E-01  3.2204405124E-01  9.2193971835E-02
                       5.0000000000E-01  3.2204405124E-01  2.7658191550E-01
                       8.6808013086E+00  0.0000000000E+00  5.7159242975E-02
                       8.6808013086E+00  0.0000000000E+00  2.4154718664E-01
                       6.9000552944E-01  0.0000000000E+00  1.2722870069E-01
                       6.9000552944E-01  0.0000000000E+00  3.1161664436E-01
                       1.9000552944E-01  3.2204405124E-01  1.4935321481E-01
                       1.9000552944E-01  3.2204405124E-01  3.3374115848E-01
                       8.0999447056E-01  3.2204405124E-01  3.5034728860E-02
                       8.0999447056E-01  3.2204405124E-01  2.1942267253E-01
                       1.9000552944E-01  0.0000000000E+00  5.1914016865E-01
                       1.9000552944E-01  0.0000000000E+00  6.7531171010E-01
                       4.2348631463E-01  2.9945396738E-01  5.7435586992E-01
                       4.2348631463E-01  2.9945396738E-01  7.3052741137E-01
                       4.2348631463E-01 -2.9945396738E-01  5.7435586992E-01
                       4.2348631463E-01 -2.9945396738E-01  7.3052741137E-01
                       0.0000000000E+00  0.0000000000E+00  6.2956944710E-01
                       0.0000000000E+00  0.0000000000E+00  7.8574098855E-01
             xred13    0.0000000000E+00  0.0000000000E+00  0.0000000000E+00
                       0.0000000000E+00  0.0000000000E+00  1.8365067276E-01
                       5.0000000000E-01  3.2204405124E-01  9.1825336380E-02
                       5.0000000000E-01  3.2204405124E-01  2.7547600914E-01
                       8.6808013086E+00  0.0000000000E+00  5.6930693069E-02
                       8.6808013086E+00  0.0000000000E+00  2.4058136583E-01
                       6.9000552944E-01  0.0000000000E+00  1.2671997969E-01
                       6.9000552944E-01  0.0000000000E+00  3.1037065245E-01
                       1.9000552944E-01  3.2204405124E-01  1.4875602945E-01
                       1.9000552944E-01  3.2204405124E-01  3.3240670221E-01
                       8.0999447056E-01  3.2204405124E-01  3.4894643310E-02
                       8.0999447056E-01  3.2204405124E-01  2.1854531607E-01
                       1.9000552944E-01  0.0000000000E+00  5.2106287552E-01
                       1.9000552944E-01  0.0000000000E+00  6.7660996869E-01
                       4.2348631463E-01  2.9945396738E-01  5.7605779809E-01
                       4.2348631463E-01  2.9945396738E-01  7.3160489126E-01
                       4.2348631463E-01 -2.9945396738E-01  5.7605779809E-01
                       4.2348631463E-01 -2.9945396738E-01  7.3160489126E-01
                       0.0000000000E+00  0.0000000000E+00  6.3105060506E-01
                       0.0000000000E+00  0.0000000000E+00  7.8659769823E-01
             xred14    0.0000000000E+00  0.0000000000E+00  0.0000000000E+00
                       0.0000000000E+00  0.0000000000E+00  1.8291927429E-01
                       5.0000000000E-01  3.2204405124E-01  9.1459637145E-02
                       5.0000000000E-01  3.2204405124E-01  2.7437891144E-01
                       8.6808013086E+00  0.0000000000E+00  5.6703963588E-02
                       8.6808013086E+00  0.0000000000E+00  2.3962323788E-01
                       6.9000552944E-01  0.0000000000E+00  1.2621531070E-01
                       6.9000552944E-01  0.0000000000E+00  3.0913458499E-01
                       1.9000552944E-01  3.2204405124E-01  1.4816360073E-01
                       1.9000552944E-01  3.2204405124E-01  3.3108287502E-01
                       8.0999447056E-01  3.2204405124E-01  3.4755673557E-02
                       8.0999447056E-01  3.2204405124E-01  2.1767494785E-01
                       1.9000552944E-01  0.0000000000E+00  5.2297026782E-01
                       1.9000552944E-01  0.0000000000E+00  6.7789788651E-01
                       4.2348631463E-01  2.9945396738E-01  5.7774617022E-01
                       4.2348631463E-01  2.9945396738E-01  7.3267378890E-01
                       4.2348631463E-01 -2.9945396738E-01  5.7774617022E-01
                       4.2348631463E-01 -2.9945396738E-01  7.3267378890E-01
                       0.0000000000E+00  0.0000000000E+00  6.3251996544E-01
                       0.0000000000E+00  0.0000000000E+00  7.8744758413E-01
             xred15    0.0000000000E+00  0.0000000000E+00  0.0000000000E+00
                       0.0000000000E+00  0.0000000000E+00  1.8219367838E-01
                       5.0000000000E-01  3.2204405124E-01  9.1096839189E-02
                       5.0000000000E-01  3.2204405124E-01  2.7329051757E-01
                       8.6808013086E+00  0.0000000000E+00  5.6479032867E-02
                       8.6808013086E+00  0.0000000000E+00  2.3867271125E-01
                       6.9000552944E-01  0.0000000000E+00  1.2571464551E-01
                       6.9000552944E-01  0.0000000000E+00  3.0790832389E-01
                       1.9000552944E-01  3.2204405124E-01  1.4757587206E-01
                       1.9000552944E-01  3.2204405124E-01  3.2976955043E-01
                       8.0999447056E-01  3.2204405124E-01  3.4617806322E-02
                       8.0999447056E-01  3.2204405124E-01  2.1681148470E-01
                       1.9000552944E-01  0.0000000000E+00  5.2486252781E-01
                       1.9000552944E-01  0.0000000000E+00  6.7917558662E-01
                       4.2348631463E-01  2.9945396738E-01  5.7942114763E-01
                       4.2348631463E-01  2.9945396738E-01  7.3373420644E-01
                       4.2348631463E-01 -2.9945396738E-01  5.7942114763E-01
                       4.2348631463E-01 -2.9945396738E-01  7.3373420644E-01
                       0.0000000000E+00  0.0000000000E+00  6.3397766864E-01
                       0.0000000000E+00  0.0000000000E+00  7.8829072745E-01
            znucl       22.00000    8.00000   46.00000

================================================================================

- Total cpu        time (s,m,h):     136048.1     2267.47     37.791
- Total wall clock time (s,m,h):     148640.1     2477.33     41.289
-
- For major independent code sections, cpu and wall times (sec),
-  as well as % of the time and number of calls for node 0-
-<BEGIN_TIMER mpi_nprocs = 1, omp_nthreads = 1, mpi_rank = 0>
- cpu_time =       136048.1, wall_time =       148640.1
-
- routine                        cpu     %       wall     %      number of calls  Gflops    Speedup Efficacity
-                                                                  (-1=no count)
- projbd                     51958.906  38.2  64141.481  43.2        1199094      -1.00        0.81       0.81
- nonlop(apply)              35815.422  26.3  35889.642  24.1         751329      -1.00        1.00       1.00
- fourwf%(pot)               25985.234  19.1  26250.842  17.7         751329      -1.00        0.99       0.99
- vtowfk(ssdiag)              8565.859   6.3   8590.572   5.8             -1      -1.00        1.00       1.00
- fourwf%(den)                2832.688   2.1   2840.219   1.9         140880      -1.00        1.00       1.00
- others (108)                2003.406   1.5   2001.204   1.3             -1      -1.00        1.00       1.00
-<END_TIMER>
-
- subtotal                  127161.516  93.5 139713.960  94.0                                  0.91       0.91

- For major independent code sections, cpu and wall times (sec),
- as well as % of the total time and number of calls 

-<BEGIN_TIMER mpi_nprocs = 1, omp_nthreads = 1, mpi_rank = world>
- cpu_time =      136048.1, wall_time =      148640.1
-
- routine                         cpu     %       wall     %      number of calls Gflops    Speedup Efficacity
-                                                                  (-1=no count)
- projbd                     51958.906  38.2  64141.481  43.2        1199094      -1.00        0.81       0.81
- nonlop(apply)              35815.422  26.3  35889.642  24.1         751329      -1.00        1.00       1.00
- fourwf%(pot)               25985.234  19.1  26250.842  17.7         751329      -1.00        0.99       0.99
- vtowfk(ssdiag)              8565.859   6.3   8590.572   5.8             -1      -1.00        1.00       1.00
- fourwf%(den)                2832.688   2.1   2840.219   1.9         140880      -1.00        1.00       1.00
- others (108)                2003.406   1.5   2001.204   1.3             -1      -1.00        1.00       1.00
-<END_TIMER>

- subtotal                  127161.516  93.5 139713.960  94.0                                  0.91       0.91

================================================================================

 Suggested references for the acknowledgment of ABINIT usage.

 The users of ABINIT have little formal obligations with respect to the ABINIT group
 (those specified in the GNU General Public License, http://www.gnu.org/copyleft/gpl.txt).
 However, it is common practice in the scientific literature,
 to acknowledge the efforts of people that have made the research possible.
 In this spirit, please find below suggested citations of work written by ABINIT developers,
 corresponding to implementations inside of ABINIT that you have used in the present run.
 Note also that it will be of great value to readers of publications presenting these results,
 to read papers enabling them to understand the theoretical formalism and details
 of the ABINIT implementation.
 For information on why they are suggested, see also https://www.abinit.org/about/?text=acknowledgments.
-
- [1] Recent developments in the ABINIT software package.
- Computer Phys. Comm. 205, 106 (2016).
- X.Gonze, F.Jollet, F.Abreu Araujo, D.Adams, B.Amadon, T.Applencourt,
- C.Audouze, J.-M.Beuken, J.Bieder, A.Bokhanchuk, E.Bousquet, F.Bruneval
- D.Caliste, M.Cote, F.Dahm, F.Da Pieve, M.Delaveau, M.Di Gennaro,
- B.Dorado, C.Espejo, G.Geneste, L.Genovese, A.Gerossier, M.Giantomassi,
- Y.Gillet, D.R.Hamann, L.He, G.Jomard, J.Laflamme Janssen, S.Le Roux,
- A.Levitt, A.Lherbier, F.Liu, I.Lukacevic, A.Martin, C.Martins,
- M.J.T.Oliveira, S.Ponce, Y.Pouillon, T.Rangel, G.-M.Rignanese,
- A.H.Romero, B.Rousseau, O.Rubel, A.A.Shukri, M.Stankovski, M.Torrent,
- M.J.Van Setten, B.Van Troeye, M.J.Verstraete, D.Waroquier, J.Wiktor,
- B.Xue, A.Zhou, J.W.Zwanziger.
- Comment : the fourth generic paper describing the ABINIT project.
- Note that a version of this paper, that is not formatted for Computer Phys. Comm. 
- is available at https://www.abinit.org/about/ABINIT16.pdf .
- The licence allows the authors to put it on the Web.
-
- [2] Optimized norm-conserving Vanderbilt pseudopotentials.
- D.R. Hamann, Phys. Rev. B 88, 085117 (2013).
- Comment: Some pseudopotential generated using the ONCVPSP code were used.
-
- [3] ABINIT : First-principles approach of materials and nanosystem properties.
- Computer Phys. Comm. 180, 2582-2615 (2009).
- X. Gonze, B. Amadon, P.-M. Anglade, J.-M. Beuken, F. Bottin, P. Boulanger, F. Bruneval,
- D. Caliste, R. Caracas, M. Cote, T. Deutsch, L. Genovese, Ph. Ghosez, M. Giantomassi
- S. Goedecker, D.R. Hamann, P. Hermet, F. Jollet, G. Jomard, S. Leroux, M. Mancini, S. Mazevet,
- M.J.T. Oliveira, G. Onida, Y. Pouillon, T. Rangel, G.-M. Rignanese, D. Sangalli, R. Shaltaf,
- M. Torrent, M.J. Verstraete, G. Zerah, J.W. Zwanziger
- Comment : the third generic paper describing the ABINIT project.
- Note that a version of this paper, that is not formatted for Computer Phys. Comm. 
- is available at https://www.abinit.org/about/ABINIT_CPC_v10.pdf .
- The licence allows the authors to put it on the Web.
-
- [4] A brief introduction to the ABINIT software package.
- Z. Kristallogr. 220, 558-562 (2005).
- X. Gonze, G.-M. Rignanese, M. Verstraete, J.-M. Beuken, Y. Pouillon, R. Caracas, F. Jollet,
- M. Torrent, G. Zerah, M. Mikami, Ph. Ghosez, M. Veithen, J.-Y. Raty, V. Olevano, F. Bruneval,
- L. Reining, R. Godby, G. Onida, D.R. Hamann, and D.C. Allan.
- Comment : the second generic paper describing the ABINIT project. Note that this paper
- should be cited especially if you are using the GW part of ABINIT, as several authors
- of this part are not in the list of authors of the first or third paper.
- The .pdf of the latter paper is available at https://www.abinit.org/about/zfk_0505-06_558-562.pdf.
- Note that it should not redistributed (Copyright by Oldenburg Wissenshaftverlag,
- the licence allows the authors to put it on the Web).
-
- And optionally:
-
- [5] First-principles computation of material properties : the ABINIT software project. 
- X. Gonze, J.-M. Beuken, R. Caracas, F. Detraux, M. Fuchs, G.-M. Rignanese, L. Sindic,
- M. Verstraete, G. Zerah, F. Jollet, M. Torrent, A. Roy, M. Mikami, Ph. Ghosez, J.-Y. Raty, D.C. Allan.
- Computational Materials Science 25, 478-492 (2002). http://dx.doi.org/10.1016/S0927-0256(02)00325-7
- Comment : the original paper describing the ABINIT project.
-
- Proc.   0 individual time (sec): cpu=     136048.1  wall=     148640.1

================================================================================

 Calculation completed.
.Delivered  27 WARNINGs and  30 COMMENTs to log file.
+Overall time at end (sec) : cpu=     136048.1  wall=     148640.1
