  ABINIT 8.6.3
  
  Give name for formatted input file: 
tbase3_5.in
  Give name for formatted output file:
tbase3_5.out
  Give root name for generic input files:
tbase3_5i
  Give root name for generic output files:
tbase3_5o
  Give root name for generic temporary files:
tbase3_5

.Version 8.6.3 of ABINIT 
.(sequential version, prepared for a x86_64_linux_gnu5.4 computer) 

.Copyright (C) 1998-2017 ABINIT group . 
 ABINIT comes with ABSOLUTELY NO WARRANTY.
 It is free software, and you are welcome to redistribute it
 under certain conditions (GNU General Public License,
 see ~abinit/COPYING or http://www.gnu.org/copyleft/gpl.txt).

 ABINIT is a project of the Universite Catholique de Louvain,
 Corning Inc. and other collaborators, see ~abinit/doc/developers/contributors.txt .
 Please read ~abinit/doc/users/acknowledgments.html for suggested
 acknowledgments of the ABINIT effort.
 For more information, see https://www.abinit.org .

.Starting date : Sat 14 Apr 2018.
- ( at 14h58 )
  

 ++++++++++++++++++++++++++++++++++++++++++++++++++++++++++++++++++++++++++++++

 === Build Information === 
  Version       : 8.6.3
  Build target  : x86_64_linux_gnu5.4
  Build date    : 20180412

 === Compiler Suite === 
  C compiler       : gnu5.4
  C++ compiler     : gnu5.4
  Fortran compiler : gnu5.4
  CFLAGS           :  -g -O2 -mtune=native -march=native
  CXXFLAGS         :  -g -O2 -mtune=native -march=native
  FCFLAGS          :  -g -ffree-line-length-none
  FC_LDFLAGS       : 

 === Optimizations === 
  Debug level        : basic
  Optimization level : standard
  Architecture       : unknown_unknown

 === Multicore === 
  Parallel build : no
  Parallel I/O   : no
  openMP support : no
  GPU support    : no

 === Connectors / Fallbacks === 
  Connectors on : yes
  Fallbacks on  : yes
  DFT flavor    : none
  FFT flavor    : none
  LINALG flavor : netlib-fallback
  MATH flavor   : none
  TIMER flavor  : abinit
  TRIO flavor   : none

 === Experimental features === 
  Bindings            : @enable_bindings@
  Exports             : no
  GW double-precision : no

 ++++++++++++++++++++++++++++++++++++++++++++++++++++++++++++++++++++++++++++++


 ++++++++++++++++++++++++++++++++++++++++++++++++++++++++++++++++++++++++++++++
 Default optimizations:
   -O2 -mtune=native -march=native


 Optimizations for 20_datashare:
   -O0


 ++++++++++++++++++++++++++++++++++++++++++++++++++++++++++++++++++++++++++++++


 ++++++++++++++++++++++++++++++++++++++++++++++++++++++++++++++++++++++++++++++
 CPP options activated during the build:

                    CC_GNU                   CXX_GNU                    FC_GNU
 
 HAVE_FC_ALLOCATABLE_DT...             HAVE_FC_ASYNC         HAVE_FC_BACKTRACE
 
  HAVE_FC_COMMAND_ARGUMENT      HAVE_FC_COMMAND_LINE        HAVE_FC_CONTIGUOUS
 
           HAVE_FC_CPUTIME              HAVE_FC_EXIT             HAVE_FC_FLUSH
 
             HAVE_FC_GAMMA            HAVE_FC_GETENV   HAVE_FC_IEEE_EXCEPTIONS
 
          HAVE_FC_INT_QUAD             HAVE_FC_IOMSG     HAVE_FC_ISO_C_BINDING
 
  HAVE_FC_ISO_FORTRAN_2008        HAVE_FC_LONG_LINES        HAVE_FC_MOVE_ALLOC
 
           HAVE_FC_PRIVATE         HAVE_FC_PROTECTED         HAVE_FC_STREAM_IO
 
            HAVE_FC_SYSTEM          HAVE_FORTRAN2003        HAVE_LIBPAW_ABINIT
 
      HAVE_LIBTETRA_ABINIT             HAVE_OS_LINUX         HAVE_TIMER_ABINIT
 
              USE_MACROAVE                                                      
 ++++++++++++++++++++++++++++++++++++++++++++++++++++++++++++++++++++++++++++++

- input  file    -> tbase3_5.in
- output file    -> tbase3_5.out
- root for input  files -> tbase3_5i
- root for output files -> tbase3_5o

-instrng: 87 lines of input have been read from file tbase3_5.in


 Please give name of formatted atomic psp file
 iofn2 : for atom type 1, psp file is ../../../Psps_for_tests/14si.pspnc
  read the values zionpsp=  4.0 , pspcod=   1 , lmax=   2

 inpspheads: deduce mpsang = 3, n1xccc = 2501.
 invars1 : treat image number: 1

 symlatt : the Bravais lattice is cF (face-centered cubic)
  xred   is defined in input file
 ingeo : takes atomic coordinates from input array xred
 symfind : exit, nsym=48
   symrel matrices, symafm and tnons are :
   1       1   0   0     0   1   0     0   0   1       1      0.0000  0.0000  0.0000
   2      -1   0   0     0  -1   0     0   0  -1       1      0.2500  0.2500  0.2500
   3       0  -1   1     0  -1   0     1  -1   0       1      0.0000  0.0000  0.0000
   4       0   1  -1     0   1   0    -1   1   0       1      0.2500  0.2500  0.2500
   5      -1   0   0    -1   0   1    -1   1   0       1      0.0000  0.0000  0.0000
   6       1   0   0     1   0  -1     1  -1   0       1      0.2500  0.2500  0.2500
   7       0   1  -1     1   0  -1     0   0  -1       1      0.0000  0.0000  0.0000
   8       0  -1   1    -1   0   1     0   0   1       1      0.2500  0.2500  0.2500
   9      -1   0   0    -1   1   0    -1   0   1       1      0.0000  0.0000  0.0000
  10       1   0   0     1  -1   0     1   0  -1       1      0.2500  0.2500  0.2500
  11       0  -1   1     1  -1   0     0  -1   0       1      0.0000  0.0000  0.0000
  12       0   1  -1    -1   1   0     0   1   0       1      0.2500  0.2500  0.2500
  13       1   0   0     0   0   1     0   1   0       1      0.0000  0.0000  0.0000
  14      -1   0   0     0   0  -1     0  -1   0       1      0.2500  0.2500  0.2500
  15       0   1  -1     0   0  -1     1   0  -1       1      0.0000  0.0000  0.0000
  16       0  -1   1     0   0   1    -1   0   1       1      0.2500  0.2500  0.2500
  17      -1   0   1    -1   1   0    -1   0   0       1      0.0000  0.0000  0.0000
  18       1   0  -1     1  -1   0     1   0   0       1      0.2500  0.2500  0.2500
  19       0  -1   0     1  -1   0     0  -1   1       1      0.0000  0.0000  0.0000
  20       0   1   0    -1   1   0     0   1  -1       1      0.2500  0.2500  0.2500
  21       1   0  -1     0   0  -1     0   1  -1       1      0.0000  0.0000  0.0000
  22      -1   0   1     0   0   1     0  -1   1       1      0.2500  0.2500  0.2500
  23       0   1   0     0   0   1     1   0   0       1      0.0000  0.0000  0.0000
  24       0  -1   0     0   0  -1    -1   0   0       1      0.2500  0.2500  0.2500
  25       1   0  -1     0   1  -1     0   0  -1       1      0.0000  0.0000  0.0000
  26      -1   0   1     0  -1   1     0   0   1       1      0.2500  0.2500  0.2500
  27       0  -1   0     0  -1   1     1  -1   0       1      0.0000  0.0000  0.0000
  28       0   1   0     0   1  -1    -1   1   0       1      0.2500  0.2500  0.2500
  29      -1   0   1    -1   0   0    -1   1   0       1      0.0000  0.0000  0.0000
  30       1   0  -1     1   0   0     1  -1   0       1      0.2500  0.2500  0.2500
  31       0   1   0     1   0   0     0   0   1       1      0.0000  0.0000  0.0000
  32       0  -1   0    -1   0   0     0   0  -1       1      0.2500  0.2500  0.2500
  33       0   0  -1     0   1  -1     1   0  -1       1      0.0000  0.0000  0.0000
  34       0   0   1     0  -1   1    -1   0   1       1      0.2500  0.2500  0.2500
  35       1  -1   0     0  -1   1     0  -1   0       1      0.0000  0.0000  0.0000
  36      -1   1   0     0   1  -1     0   1   0       1      0.2500  0.2500  0.2500
  37       0   0   1     1   0   0     0   1   0       1      0.0000  0.0000  0.0000
  38       0   0  -1    -1   0   0     0  -1   0       1      0.2500  0.2500  0.2500
  39      -1   1   0    -1   0   0    -1   0   1       1      0.0000  0.0000  0.0000
  40       1  -1   0     1   0   0     1   0  -1       1      0.2500  0.2500  0.2500
  41       0   0   1     0   1   0     1   0   0       1      0.0000  0.0000  0.0000
  42       0   0  -1     0  -1   0    -1   0   0       1      0.2500  0.2500  0.2500
  43       1  -1   0     0  -1   0     0  -1   1       1      0.0000  0.0000  0.0000
  44      -1   1   0     0   1   0     0   1  -1       1      0.2500  0.2500  0.2500
  45       0   0  -1     1   0  -1     0   1  -1       1      0.0000  0.0000  0.0000
  46       0   0   1    -1   0   1     0  -1   1       1      0.2500  0.2500  0.2500
  47      -1   1   0    -1   0   1    -1   0   0       1      0.0000  0.0000  0.0000
  48       1  -1   0     1   0  -1     1   0   0       1      0.2500  0.2500  0.2500

 symlatt : the Bravais lattice is cF (face-centered cubic)

 symlatt : the Bravais lattice is cF (face-centered cubic)
 symspgr : spgroup= 227  Fd -3 m   (=Oh^7)
 symspgr : optical characteristics = isotropic
 ingeo : angdeg(1:3)=   60.00000000   60.00000000   60.00000000
 invars1 : treat image number: 1

 symlatt : the Bravais lattice is cF (face-centered cubic)
  xred   is defined in input file
 ingeo : takes atomic coordinates from input array xred
 symfind : exit, nsym=48
   symrel matrices, symafm and tnons are :
   1       1   0   0     0   1   0     0   0   1       1      0.0000  0.0000  0.0000
   2      -1   0   0     0  -1   0     0   0  -1       1      0.2500  0.2500  0.2500
   3       0  -1   1     0  -1   0     1  -1   0       1      0.0000  0.0000  0.0000
   4       0   1  -1     0   1   0    -1   1   0       1      0.2500  0.2500  0.2500
   5      -1   0   0    -1   0   1    -1   1   0       1      0.0000  0.0000  0.0000
   6       1   0   0     1   0  -1     1  -1   0       1      0.2500  0.2500  0.2500
   7       0   1  -1     1   0  -1     0   0  -1       1      0.0000  0.0000  0.0000
   8       0  -1   1    -1   0   1     0   0   1       1      0.2500  0.2500  0.2500
   9      -1   0   0    -1   1   0    -1   0   1       1      0.0000  0.0000  0.0000
  10       1   0   0     1  -1   0     1   0  -1       1      0.2500  0.2500  0.2500
  11       0  -1   1     1  -1   0     0  -1   0       1      0.0000  0.0000  0.0000
  12       0   1  -1    -1   1   0     0   1   0       1      0.2500  0.2500  0.2500
  13       1   0   0     0   0   1     0   1   0       1      0.0000  0.0000  0.0000
  14      -1   0   0     0   0  -1     0  -1   0       1      0.2500  0.2500  0.2500
  15       0   1  -1     0   0  -1     1   0  -1       1      0.0000  0.0000  0.0000
  16       0  -1   1     0   0   1    -1   0   1       1      0.2500  0.2500  0.2500
  17      -1   0   1    -1   1   0    -1   0   0       1      0.0000  0.0000  0.0000
  18       1   0  -1     1  -1   0     1   0   0       1      0.2500  0.2500  0.2500
  19       0  -1   0     1  -1   0     0  -1   1       1      0.0000  0.0000  0.0000
  20       0   1   0    -1   1   0     0   1  -1       1      0.2500  0.2500  0.2500
  21       1   0  -1     0   0  -1     0   1  -1       1      0.0000  0.0000  0.0000
  22      -1   0   1     0   0   1     0  -1   1       1      0.2500  0.2500  0.2500
  23       0   1   0     0   0   1     1   0   0       1      0.0000  0.0000  0.0000
  24       0  -1   0     0   0  -1    -1   0   0       1      0.2500  0.2500  0.2500
  25       1   0  -1     0   1  -1     0   0  -1       1      0.0000  0.0000  0.0000
  26      -1   0   1     0  -1   1     0   0   1       1      0.2500  0.2500  0.2500
  27       0  -1   0     0  -1   1     1  -1   0       1      0.0000  0.0000  0.0000
  28       0   1   0     0   1  -1    -1   1   0       1      0.2500  0.2500  0.2500
  29      -1   0   1    -1   0   0    -1   1   0       1      0.0000  0.0000  0.0000
  30       1   0  -1     1   0   0     1  -1   0       1      0.2500  0.2500  0.2500
  31       0   1   0     1   0   0     0   0   1       1      0.0000  0.0000  0.0000
  32       0  -1   0    -1   0   0     0   0  -1       1      0.2500  0.2500  0.2500
  33       0   0  -1     0   1  -1     1   0  -1       1      0.0000  0.0000  0.0000
  34       0   0   1     0  -1   1    -1   0   1       1      0.2500  0.2500  0.2500
  35       1  -1   0     0  -1   1     0  -1   0       1      0.0000  0.0000  0.0000
  36      -1   1   0     0   1  -1     0   1   0       1      0.2500  0.2500  0.2500
  37       0   0   1     1   0   0     0   1   0       1      0.0000  0.0000  0.0000
  38       0   0  -1    -1   0   0     0  -1   0       1      0.2500  0.2500  0.2500
  39      -1   1   0    -1   0   0    -1   0   1       1      0.0000  0.0000  0.0000
  40       1  -1   0     1   0   0     1   0  -1       1      0.2500  0.2500  0.2500
  41       0   0   1     0   1   0     1   0   0       1      0.0000  0.0000  0.0000
  42       0   0  -1     0  -1   0    -1   0   0       1      0.2500  0.2500  0.2500
  43       1  -1   0     0  -1   0     0  -1   1       1      0.0000  0.0000  0.0000
  44      -1   1   0     0   1   0     0   1  -1       1      0.2500  0.2500  0.2500
  45       0   0  -1     1   0  -1     0   1  -1       1      0.0000  0.0000  0.0000
  46       0   0   1    -1   0   1     0  -1   1       1      0.2500  0.2500  0.2500
  47      -1   1   0    -1   0   1    -1   0   0       1      0.0000  0.0000  0.0000
  48       1  -1   0     1   0  -1     1   0   0       1      0.2500  0.2500  0.2500

 symlatt : the Bravais lattice is cF (face-centered cubic)

 symlatt : the Bravais lattice is cF (face-centered cubic)
 symspgr : spgroup= 227  Fd -3 m   (=Oh^7)
 symspgr : optical characteristics = isotropic
 ingeo : angdeg(1:3)=   60.00000000   60.00000000   60.00000000
 invars2: take the default value of fband=  1.25000000E-01
 chkneu : initialized the occupation numbers for occopt=    1, spin-unpolarized or antiferromagnetic case :
  2.00  2.00  2.00  2.00  0.00
 chkneu : initialized the occupation numbers for occopt=    1, spin-unpolarized or antiferromagnetic case :
  2.00  2.00  2.00  2.00  0.00  0.00  0.00  0.00
mpi_setup: mkmem  undefined in the input file.Use default mkmem  = nkpt
 mpi_setup: With nkpt_me=10 and mkmem  = 10, ground state wf handled in core.
mpi_setup: mkqmem undefined in the input file.Use default mkqmem = nkpt
 mpi_setup: With nkpt_me=10 and mkqmem = 10, ground state wf handled in core.
mpi_setup: mk1mem undefined in the input file.Use default mk1mem = nkpt
 mpi_setup: With nkpt_me=10 and mk1mem = 10, ground state wf handled in core.
 For input ecut=  8.000000E+00 best grid ngfft=      20      20      20
       max ecut=  9.456664E+00

 ==== FFT mesh ====
  FFT mesh divisions ........................    20   20   20
  Augmented FFT divisions ...................    21   21   20
  FFT algorithm .............................   112
  FFT cache size ............................    16
 getmpw: optimal value of mpw= 295
mpi_setup: mkmem  undefined in the input file.Use default mkmem  = nkpt
 mpi_setup: With nkpt_me=40 and mkmem  = 40, ground state wf handled in core.
mpi_setup: mkqmem undefined in the input file.Use default mkqmem = nkpt
 mpi_setup: With nkpt_me=40 and mkqmem = 40, ground state wf handled in core.
mpi_setup: mk1mem undefined in the input file.Use default mk1mem = nkpt
 mpi_setup: With nkpt_me=40 and mk1mem = 40, ground state wf handled in core.
 For input ecut=  8.000000E+00 best grid ngfft=      20      20      20
       max ecut=  9.456664E+00

 ==== FFT mesh ====
  FFT mesh divisions ........................    20   20   20
  Augmented FFT divisions ...................    21   21   20
  FFT algorithm .............................   112
  FFT cache size ............................    16
 getmpw: optimal value of mpw= 303

 DATASET    1 : space group Fd -3 m (#227); Bravais cF (face-center cubic)

 getdim_nloc : deduce lmnmax  =   4, lnmax  =   2,
                      lmnmaxso=   4, lnmaxso=   2.
memory : analysis of memory needs
================================================================================
 Values of the parameters that define the memory need for DATASET  1.
     intxc =       0    ionmov =       0      iscf =       7    lmnmax =       2
     lnmax =       2     mgfft =      20  mpssoang =       3    mqgrid =    3001
     natom =       2  nloc_mem =       1    nspden =       1   nspinor =       1
    nsppol =       1      nsym =      48    n1xccc =    2501    ntypat =       1
    occopt =       1   xclevel =       1
-    mband =           5        mffmem =           1         mkmem =          10
       mpw =         295          nfft =        8000          nkpt =          10
================================================================================
P This job should need less than                       3.085 Mbytes of memory.
  Rough estimation (10% accuracy) of disk space for files :
_ WF disk file :      0.227 Mbytes ; DEN or POT disk file :      0.063 Mbytes.
================================================================================

 Biggest array : f_fftgr(disk), with      0.9786 MBytes.
 memana : allocated an array of      0.979 Mbytes, for testing purposes.
 memana: allocated       3.085Mbytes, for testing purposes. 
 The job will continue.

 DATASET    2 : space group Fd -3 m (#227); Bravais cF (face-center cubic)

 getdim_nloc : deduce lmnmax  =   4, lnmax  =   2,
                      lmnmaxso=   4, lnmaxso=   2.
memory : analysis of memory needs
================================================================================
 Values of the parameters that define the memory need for DATASET  2.
     intxc =       0    ionmov =       0      iscf =      -2    lmnmax =       2
     lnmax =       2     mgfft =      20  mpssoang =       3    mqgrid =    3001
     natom =       2  nloc_mem =       1    nspden =       1   nspinor =       1
    nsppol =       1      nsym =      48    n1xccc =    2501    ntypat =       1
    occopt =       1   xclevel =       1
-    mband =           8        mffmem =           1         mkmem =          40
       mpw =         303          nfft =        8000          nkpt =          40
================================================================================
P This job should need less than                       3.512 Mbytes of memory.
  Rough estimation (10% accuracy) of disk space for files :
_ WF disk file :      1.481 Mbytes ; DEN or POT disk file :      0.063 Mbytes.
================================================================================

 Biggest array : cg(disk), with      1.4815 MBytes.
 memana : allocated an array of      1.481 Mbytes, for testing purposes.
 memana: allocated       3.512Mbytes, for testing purposes. 
 The job will continue.
--------------------------------------------------------------------------------
------------- Echo of variables that govern the present computation ------------
--------------------------------------------------------------------------------
-
- outvars: echo of selected default values                                      
-   iomode0 =  0 , fftalg0 =112 , wfoptalg0 =  0
-
- outvars: echo of global parameters not present in the input file              
-  max_nthreads =    0
-
 -outvars: echo values of preprocessed input variables --------
            acell      1.0216000000E+01  1.0216000000E+01  1.0216000000E+01 Bohr
              amu      2.80855000E+01
           diemac      1.20000000E+01
             ecut      8.00000000E+00 Hartree
           enunit1          0
           enunit2          1
-          fftalg         112
           getden1          0
           getden2         -1
             iscf1          7
             iscf2         -2
           istwfk2       3    0    0    0    0    0    0    0    0    0
                         2    0    0    0    0    0    0    0    0    0
                         0    0    8    0    0    0    0    0    0    0
                         0    0    0    0    0    0    0    0    0    0
           jdtset        1    2
              kpt1    -1.25000000E-01 -2.50000000E-01  0.00000000E+00
                      -1.25000000E-01  5.00000000E-01  0.00000000E+00
                      -2.50000000E-01 -3.75000000E-01  0.00000000E+00
                      -1.25000000E-01 -3.75000000E-01  1.25000000E-01
                      -1.25000000E-01  2.50000000E-01  0.00000000E+00
                      -2.50000000E-01  3.75000000E-01  0.00000000E+00
                      -3.75000000E-01  5.00000000E-01  0.00000000E+00
                      -2.50000000E-01  5.00000000E-01  1.25000000E-01
                      -1.25000000E-01  0.00000000E+00  0.00000000E+00
                      -3.75000000E-01  0.00000000E+00  0.00000000E+00
              kpt2     5.00000000E-01  0.00000000E+00  0.00000000E+00
                       4.50000000E-01  0.00000000E+00  0.00000000E+00
                       4.00000000E-01  0.00000000E+00  0.00000000E+00
                       3.50000000E-01  0.00000000E+00  0.00000000E+00
                       3.00000000E-01  0.00000000E+00  0.00000000E+00
                       2.50000000E-01  0.00000000E+00  0.00000000E+00
                       2.00000000E-01  0.00000000E+00  0.00000000E+00
                       1.50000000E-01  0.00000000E+00  0.00000000E+00
                       1.00000000E-01  0.00000000E+00  0.00000000E+00
                       5.00000000E-02  0.00000000E+00  0.00000000E+00
                       0.00000000E+00  0.00000000E+00  0.00000000E+00
                       0.00000000E+00  4.16666667E-02  4.16666667E-02
                       0.00000000E+00  8.33333333E-02  8.33333333E-02
                       0.00000000E+00  1.25000000E-01  1.25000000E-01
                       0.00000000E+00  1.66666667E-01  1.66666667E-01
                       0.00000000E+00  2.08333333E-01  2.08333333E-01
                       0.00000000E+00  2.50000000E-01  2.50000000E-01
                       0.00000000E+00  2.91666667E-01  2.91666667E-01
                       0.00000000E+00  3.33333333E-01  3.33333333E-01
                       0.00000000E+00  3.75000000E-01  3.75000000E-01
                       0.00000000E+00  4.16666667E-01  4.16666667E-01
                       0.00000000E+00  4.58333333E-01  4.58333333E-01
                       0.00000000E+00  5.00000000E-01  5.00000000E-01
                       5.88235294E-02  5.29411765E-01  5.29411765E-01
                       1.17647059E-01  5.58823529E-01  5.58823529E-01
                       1.76470588E-01  5.88235294E-01  5.88235294E-01
                       2.35294118E-01  6.17647059E-01  6.17647059E-01
                       2.94117647E-01  6.47058824E-01  6.47058824E-01
                       3.52941176E-01  6.76470588E-01  6.76470588E-01
                       4.11764706E-01  7.05882353E-01  7.05882353E-01
                       4.70588235E-01  7.35294118E-01  7.35294118E-01
                       5.29411765E-01  7.64705882E-01  7.64705882E-01
                       5.88235294E-01  7.94117647E-01  7.94117647E-01
                       6.47058824E-01  8.23529412E-01  8.23529412E-01
                       7.05882353E-01  8.52941176E-01  8.52941176E-01
                       7.64705882E-01  8.82352941E-01  8.82352941E-01
                       8.23529412E-01  9.11764706E-01  9.11764706E-01
                       8.82352941E-01  9.41176471E-01  9.41176471E-01
                       9.41176471E-01  9.70588235E-01  9.70588235E-01
                       1.00000000E+00  1.00000000E+00  1.00000000E+00
           kptopt1          1
           kptopt2         -3
         kptrlatt        4   -4    4     -4    4    4     -4   -4    4
          kptrlen1     4.08640000E+01
          kptrlen2     3.00000000E+01
P           mkmem1         10
P           mkmem2         40
            natom           2
            nband1          5
            nband2          8
           nbdbuf1          0
           nbdbuf2          2
           ndtset           2
            ngfft          20      20      20
             nkpt1         10
             nkpt2         40
            nstep          10
             nsym          48
           ntypat           1
              occ      2.000000  2.000000  2.000000  2.000000  0.000000
            rprim      0.0000000000E+00  5.0000000000E-01  5.0000000000E-01
                       5.0000000000E-01  0.0000000000E+00  5.0000000000E-01
                       5.0000000000E-01  5.0000000000E-01  0.0000000000E+00
           shiftk      5.00000000E-01  5.00000000E-01  5.00000000E-01
          spgroup         227
           symrel      1  0  0   0  1  0   0  0  1      -1  0  0   0 -1  0   0  0 -1
                       0 -1  1   0 -1  0   1 -1  0       0  1 -1   0  1  0  -1  1  0
                      -1  0  0  -1  0  1  -1  1  0       1  0  0   1  0 -1   1 -1  0
                       0  1 -1   1  0 -1   0  0 -1       0 -1  1  -1  0  1   0  0  1
                      -1  0  0  -1  1  0  -1  0  1       1  0  0   1 -1  0   1  0 -1
                       0 -1  1   1 -1  0   0 -1  0       0  1 -1  -1  1  0   0  1  0
                       1  0  0   0  0  1   0  1  0      -1  0  0   0  0 -1   0 -1  0
                       0  1 -1   0  0 -1   1  0 -1       0 -1  1   0  0  1  -1  0  1
                      -1  0  1  -1  1  0  -1  0  0       1  0 -1   1 -1  0   1  0  0
                       0 -1  0   1 -1  0   0 -1  1       0  1  0  -1  1  0   0  1 -1
                       1  0 -1   0  0 -1   0  1 -1      -1  0  1   0  0  1   0 -1  1
                       0  1  0   0  0  1   1  0  0       0 -1  0   0  0 -1  -1  0  0
                       1  0 -1   0  1 -1   0  0 -1      -1  0  1   0 -1  1   0  0  1
                       0 -1  0   0 -1  1   1 -1  0       0  1  0   0  1 -1  -1  1  0
                      -1  0  1  -1  0  0  -1  1  0       1  0 -1   1  0  0   1 -1  0
                       0  1  0   1  0  0   0  0  1       0 -1  0  -1  0  0   0  0 -1
                       0  0 -1   0  1 -1   1  0 -1       0  0  1   0 -1  1  -1  0  1
                       1 -1  0   0 -1  1   0 -1  0      -1  1  0   0  1 -1   0  1  0
                       0  0  1   1  0  0   0  1  0       0  0 -1  -1  0  0   0 -1  0
                      -1  1  0  -1  0  0  -1  0  1       1 -1  0   1  0  0   1  0 -1
                       0  0  1   0  1  0   1  0  0       0  0 -1   0 -1  0  -1  0  0
                       1 -1  0   0 -1  0   0 -1  1      -1  1  0   0  1  0   0  1 -1
                       0  0 -1   1  0 -1   0  1 -1       0  0  1  -1  0  1   0 -1  1
                      -1  1  0  -1  0  1  -1  0  0       1 -1  0   1  0 -1   1  0  0
            tnons      0.0000000  0.0000000  0.0000000     0.2500000  0.2500000  0.2500000
                       0.0000000  0.0000000  0.0000000     0.2500000  0.2500000  0.2500000
                       0.0000000  0.0000000  0.0000000     0.2500000  0.2500000  0.2500000
                       0.0000000  0.0000000  0.0000000     0.2500000  0.2500000  0.2500000
                       0.0000000  0.0000000  0.0000000     0.2500000  0.2500000  0.2500000
                       0.0000000  0.0000000  0.0000000     0.2500000  0.2500000  0.2500000
                       0.0000000  0.0000000  0.0000000     0.2500000  0.2500000  0.2500000
                       0.0000000  0.0000000  0.0000000     0.2500000  0.2500000  0.2500000
                       0.0000000  0.0000000  0.0000000     0.2500000  0.2500000  0.2500000
                       0.0000000  0.0000000  0.0000000     0.2500000  0.2500000  0.2500000
                       0.0000000  0.0000000  0.0000000     0.2500000  0.2500000  0.2500000
                       0.0000000  0.0000000  0.0000000     0.2500000  0.2500000  0.2500000
                       0.0000000  0.0000000  0.0000000     0.2500000  0.2500000  0.2500000
                       0.0000000  0.0000000  0.0000000     0.2500000  0.2500000  0.2500000
                       0.0000000  0.0000000  0.0000000     0.2500000  0.2500000  0.2500000
                       0.0000000  0.0000000  0.0000000     0.2500000  0.2500000  0.2500000
                       0.0000000  0.0000000  0.0000000     0.2500000  0.2500000  0.2500000
                       0.0000000  0.0000000  0.0000000     0.2500000  0.2500000  0.2500000
                       0.0000000  0.0000000  0.0000000     0.2500000  0.2500000  0.2500000
                       0.0000000  0.0000000  0.0000000     0.2500000  0.2500000  0.2500000
                       0.0000000  0.0000000  0.0000000     0.2500000  0.2500000  0.2500000
                       0.0000000  0.0000000  0.0000000     0.2500000  0.2500000  0.2500000
                       0.0000000  0.0000000  0.0000000     0.2500000  0.2500000  0.2500000
                       0.0000000  0.0000000  0.0000000     0.2500000  0.2500000  0.2500000
           toldfe1     1.00000000E-06 Hartree
           toldfe2     0.00000000E+00 Hartree
           tolwfr1     0.00000000E+00
           tolwfr2     1.00000000E-12
            typat      1  1
              wtk1       0.09375    0.09375    0.09375    0.18750    0.09375    0.09375
                         0.09375    0.18750    0.03125    0.03125
              wtk2       1.00000    1.00000    1.00000    1.00000    1.00000    1.00000
                         1.00000    1.00000    1.00000    1.00000    1.00000    1.00000
                         1.00000    1.00000    1.00000    1.00000    1.00000    1.00000
                         1.00000    1.00000    1.00000    1.00000    1.00000    1.00000
                         1.00000    1.00000    1.00000    1.00000    1.00000    1.00000
                         1.00000    1.00000    1.00000    1.00000    1.00000    1.00000
                         1.00000    1.00000    1.00000    1.00000
           xangst      0.0000000000E+00  0.0000000000E+00  0.0000000000E+00
                       1.3515185907E+00  1.3515185907E+00  1.3515185907E+00
            xcart      0.0000000000E+00  0.0000000000E+00  0.0000000000E+00
                       2.5540000000E+00  2.5540000000E+00  2.5540000000E+00
             xred      0.0000000000E+00  0.0000000000E+00  0.0000000000E+00
                       2.5000000000E-01  2.5000000000E-01  2.5000000000E-01
            znucl       14.00000

================================================================================

 chkinp: Checking input parameters for consistency, jdtset=   1.

 chkinp: Checking input parameters for consistency, jdtset=   2.
 DATA TYPE INFORMATION: 
 REAL:      Data type name: REAL(DP) 
            Kind value:      8
            Precision:      15
            Smallest nonnegligible quantity relative to 1:  0.22204460E-15
            Smallest positive number:                       0.22250739-307
            Largest representable number:                   0.17976931+309
 INTEGER:   Data type name: INTEGER(default) 
            Kind value: 4
            Bit size:   32
            Largest representable number: 2147483647
 LOGICAL:   Data type name: LOGICAL 
            Kind value: 4
 CHARACTER: Data type name: CHARACTER             Kind value: 1

  ==== OpenMP parallelism is OFF ====
 
  MPI-IO support is OFF

================================================================================
== DATASET  1 ==================================================================
-   nproc =    1


 getdim_nloc : deduce lmnmax  =   4, lnmax  =   2,
                      lmnmaxso=   4, lnmaxso=   2.
 Exchange-correlation functional for the present dataset will be:
  LDA: new Teter (4/93) with spin-polarized option - ixc=1
 Citation for XC functional:
  S. Goedecker, M. Teter, J. Huetter, PRB 54, 1703 (1996)

 Unit cell volume ucvol=  2.6655244E+02 bohr^3
 Angles (23,13,12)=  6.00000000E+01  6.00000000E+01  6.00000000E+01 degrees

 getcut: wavevector=  0.0000  0.0000  0.0000  ngfft=  20  20  20
         ecut(hartree)=      8.000   => boxcut(ratio)=   2.17447
- pspini: atom type   1  psp file is ../../../Psps_for_tests/14si.pspnc
- pspatm: opening atomic psp file    ../../../Psps_for_tests/14si.pspnc
-  Troullier-Martins psp for element  Si        Thu Oct 27 17:31:21 EDT 1994
- 14.00000   4.00000    940714                znucl, zion, pspdat
    1    1    2    2      2001   0.00000      pspcod,pspxc,lmax,lloc,mmax,r2well
    0   5.907  14.692    1   2.0872718        l,e99.0,e99.9,nproj,rcpsp
   0.00000000   0.00000000   0.00000000   0.00000000     rms, ekb1, ekb2, epsatm
    1   2.617   4.181    1   2.0872718        l,e99.0,e99.9,nproj,rcpsp
   0.00000000   0.00000000   0.00000000   0.00000000     rms, ekb1, ekb2, epsatm
    2   0.000   0.000    0   2.0872718        l,e99.0,e99.9,nproj,rcpsp
   0.00000000   0.00000000   0.00000000   0.00000000     rms, ekb1, ekb2, epsatm
    1.80626423934776    0.22824404341771    1.17378968127746   rchrg,fchrg,qchrg
  pspatm : epsatm=    1.43386982
         --- l  ekb(1:nproj) -->
             0    3.287949
             1    1.849886
 pspatm: atomic psp has been read  and splines computed

   2.29419171E+01                                ecore*ucvol(ha*bohr**3)
 ==== Info on pseudopotentials ====
  Norm-conserving pseudopotentials
  Number of pseudopotentials ..    1
  Number of types of atoms   ..    1
  Scalar calculation (no spin-orbit term)
  Nonlocal part applied using Legendre polynomials
  Max number of non-local projectors over l and type   1
  Highest angular momentum +1 .......   3
  Max number of (l,n)   components ..   2
  Max number of (l,m,n) components ..   2

 Pseudo-Core Charge Info: 
   Number of radial points for pseudo-core charge .. 2501
   XC core-correction treatment (optnlxccc) ........    1
   Radius for pseudo-core charge for each type ..... 

  - Atom type    1 has pseudo-core radius ..  5.4188

 Info on the Q-grid used for form factors in spline form: 
   Number of q-points for radial functions ffspl ..   3001
   Number of q-points for vlspl ...................   3001
   vloc is computed in Reciprocal Space
   model core charge treated in real-space

  XC functional for type 1 is 1
  Pseudo valence available: no

 wfconv:     5 bands initialized randomly with npw=   295, for ikpt=     1
 wfconv:     5 bands initialized randomly with npw=   283, for ikpt=     2
 wfconv:     5 bands initialized randomly with npw=   292, for ikpt=     3
 wfconv:     5 bands initialized randomly with npw=   289, for ikpt=     4
 wfconv:     5 bands initialized randomly with npw=   292, for ikpt=     5
 wfconv:     5 bands initialized randomly with npw=   286, for ikpt=     6
 wfconv:     5 bands initialized randomly with npw=   291, for ikpt=     7
 wfconv:     5 bands initialized randomly with npw=   286, for ikpt=     8
 wfconv:     5 bands initialized randomly with npw=   295, for ikpt=     9
 wfconv:     5 bands initialized randomly with npw=   287, for ikpt=    10
_setup2: Arith. and geom. avg. npw (full set) are     289.031     289.009
 initro: for itypat=  1, take decay length=      1.1000,
 initro: indeed, coreel=     10.0000, nval=  4 and densty=  0.0000E+00.

================================================================================

 getcut: wavevector=  0.0000  0.0000  0.0000  ngfft=  20  20  20
         ecut(hartree)=      8.000   => boxcut(ratio)=   2.17447

 ITER STEP NUMBER     1
 vtorho : nnsclo_now=2, note that nnsclo,dbl_nnsclo,istep=0 0 1
 non-scf iterations; kpt #     1  , k= ( -0.12500 -0.25000  0.00000  ), band residuals:
 res:  7.75E-02  4.83E-02  4.32E-02  2.58E-02  2.08E-02
 ene: -1.79E-01  9.57E-02  1.52E-01  2.01E-01  3.25E-01
 res:  1.10E-03  6.38E-04  1.98E-04  1.27E-03  2.57E-03
 ene: -2.19E-01  7.46E-02  1.44E-01  1.47E-01  2.82E-01
 vtowfk : number of one-way 3D ffts skipped in vtowfk until now =1
     eigenvalues (hartree) for    5  bands
              after    3 non-SCF iterations with    4 CG line minimizations
 -2.1870E-01  7.4583E-02  1.4364E-01  1.4662E-01  2.8180E-01
 non-scf iterations; kpt #     2  , k= ( -0.12500  0.50000  0.00000  ), band residuals:
 res:  5.96E-02  3.17E-02  2.27E-02  1.99E-02  2.11E-02
 ene: -1.40E-01 -2.87E-02  1.33E-01  1.51E-01  3.05E-01
 res:  5.41E-04  5.70E-04  2.76E-04  8.21E-04  1.14E-03
 ene: -1.58E-01 -5.27E-02  1.10E-01  1.34E-01  2.83E-01
 vtowfk : number of one-way 3D ffts skipped in vtowfk until now =2
     eigenvalues (hartree) for    5  bands
              after    3 non-SCF iterations with    4 CG line minimizations
 -1.5843E-01 -5.2738E-02  1.0980E-01  1.3428E-01  2.8313E-01
 non-scf iterations; kpt #     3  , k= ( -0.25000 -0.37500  0.00000  ), band residuals:
 res:  4.44E-02  3.37E-02  1.66E-02  3.70E-02  3.58E-02
 ene: -1.65E-01  2.15E-02  1.08E-01  1.41E-01  3.45E-01
 res:  3.18E-04  1.79E-04  9.57E-05  4.43E-04  4.79E-03
 ene: -1.81E-01  1.04E-02  9.66E-02  1.12E-01  2.80E-01
 vtowfk : number of one-way 3D ffts skipped in vtowfk until now =3
     eigenvalues (hartree) for    5  bands
              after    3 non-SCF iterations with    4 CG line minimizations
 -1.8057E-01  1.0424E-02  9.6616E-02  1.1213E-01  2.8049E-01
 non-scf iterations; kpt #     4  , k= ( -0.12500 -0.37500  0.12500  ), band residuals:
 res:  3.09E-02  4.81E-02  3.41E-02  1.97E-02  2.04E-02
 ene: -1.57E-01  2.83E-03  8.74E-02  1.36E-01  3.44E-01
 res:  8.07E-05  3.33E-04  1.66E-04  2.71E-04  4.68E-04
 ene: -1.66E-01 -2.15E-02  7.36E-02  1.22E-01  3.33E-01
 vtowfk : number of one-way 3D ffts skipped in vtowfk until now =4
     eigenvalues (hartree) for    5  bands
              after    3 non-SCF iterations with    4 CG line minimizations
 -1.6552E-01 -2.1515E-02  7.3594E-02  1.2221E-01  3.3296E-01
 non-scf iterations; kpt #     5  , k= ( -0.12500  0.25000  0.00000  ), band residuals:
 res:  5.93E-02  2.30E-02  4.69E-02  3.88E-02  4.03E-02
 ene: -1.53E-01  4.63E-02  1.21E-01  1.72E-01  3.63E-01
 res:  1.11E-03  4.17E-04  2.70E-04  2.11E-04  2.28E-03
 ene: -2.00E-01  2.36E-02  1.09E-01  1.62E-01  3.01E-01
 vtowfk : number of one-way 3D ffts skipped in vtowfk until now =5
     eigenvalues (hartree) for    5  bands
              after    3 non-SCF iterations with    4 CG line minimizations
 -2.0030E-01  2.3586E-02  1.0935E-01  1.6155E-01  3.0117E-01
 non-scf iterations; kpt #     6  , k= ( -0.25000  0.37500  0.00000  ), band residuals:
 res:  2.25E-02  2.33E-02  1.97E-02  5.98E-02  3.50E-02
 ene: -1.28E-01 -4.20E-02  6.97E-02  1.34E-01  3.20E-01
 res:  3.43E-04  2.01E-04  3.65E-04  2.71E-04  7.25E-04
 ene: -1.40E-01 -5.07E-02  5.01E-02  1.23E-01  2.73E-01
 vtowfk : number of one-way 3D ffts skipped in vtowfk until now =6
     eigenvalues (hartree) for    5  bands
              after    3 non-SCF iterations with    4 CG line minimizations
 -1.4013E-01 -5.0684E-02  5.0053E-02  1.2296E-01  2.7313E-01
 non-scf iterations; kpt #     7  , k= ( -0.37500  0.50000  0.00000  ), band residuals:
 res:  1.07E-02  4.69E-02  4.00E-02  1.95E-02  1.53E-02
 ene: -1.13E-01 -5.37E-02  7.97E-02  1.07E-01  3.03E-01
 res:  1.28E-04  6.55E-05  1.67E-04  4.20E-04  8.62E-04
 ene: -1.26E-01 -5.90E-02  7.01E-02  9.52E-02  2.65E-01
 vtowfk : number of one-way 3D ffts skipped in vtowfk until now =7
     eigenvalues (hartree) for    5  bands
              after    3 non-SCF iterations with    4 CG line minimizations
 -1.2612E-01 -5.9003E-02  7.0105E-02  9.5235E-02  2.6546E-01
 non-scf iterations; kpt #     8  , k= ( -0.25000  0.50000  0.12500  ), band residuals:
 res:  2.39E-02  5.12E-02  1.66E-02  4.30E-02  2.69E-02
 ene: -1.04E-01 -5.29E-02  5.86E-02  1.00E-01  3.34E-01
 res:  3.31E-04  2.43E-04  1.98E-04  2.48E-04  1.04E-03
 ene: -1.20E-01 -6.26E-02  4.81E-02  8.65E-02  2.92E-01
 vtowfk : number of one-way 3D ffts skipped in vtowfk until now =8
     eigenvalues (hartree) for    5  bands
              after    3 non-SCF iterations with    4 CG line minimizations
 -1.2008E-01 -6.2552E-02  4.8078E-02  8.6540E-02  2.9198E-01
 non-scf iterations; kpt #     9  , k= ( -0.12500  0.00000  0.00000  ), band residuals:
 res:  8.06E-02  2.88E-02  4.70E-02  1.80E-02  1.38E-02
 ene: -1.92E-01  1.50E-01  1.86E-01  2.03E-01  3.13E-01
 res:  8.66E-04  3.83E-04  7.06E-05  9.24E-04  1.05E-03
 ene: -2.39E-01  1.33E-01  1.79E-01  1.79E-01  2.96E-01
 vtowfk : number of one-way 3D ffts skipped in vtowfk until now =9
     eigenvalues (hartree) for    5  bands
              after    3 non-SCF iterations with    4 CG line minimizations
 -2.3876E-01  1.3327E-01  1.7889E-01  1.7896E-01  2.9648E-01
 non-scf iterations; kpt #    10  , k= ( -0.37500  0.00000  0.00000  ), band residuals:
 res:  3.93E-02  4.45E-02  2.69E-02  1.81E-02  2.66E-02
 ene: -1.51E-01 -1.37E-02  1.55E-01  1.71E-01  3.11E-01
 res:  7.74E-04  3.13E-04  5.93E-05  5.77E-04  3.25E-03
 ene: -1.84E-01 -2.36E-02  1.51E-01  1.51E-01  2.63E-01
 vtowfk : number of one-way 3D ffts skipped in vtowfk until now =10
     eigenvalues (hartree) for    5  bands
              after    3 non-SCF iterations with    4 CG line minimizations
 -1.8429E-01 -2.3646E-02  1.5063E-01  1.5116E-01  2.6259E-01
 Total charge density [el/Bohr^3]
      Maximum=    9.2541E-02  at reduced coord.    0.1000    0.1000    0.7000
      Minimum=    2.8529E-03  at reduced coord.    0.5000    0.5000    0.5000
   Integrated=    8.0000E+00
 ETOT  1  -8.8670397211174    -8.867E+00 4.789E-03 5.724E+00
 scprqt: <Vxc>= -3.5184863E-01 hartree

Simple mixing update:
  residual square of the potential :   2.4794749765947506
 scfcv: previous iteration took 00 [s]

 ITER STEP NUMBER     2
 vtorho : nnsclo_now=2, note that nnsclo,dbl_nnsclo,istep=0 0 2
 non-scf iterations; kpt #     1  , k= ( -0.12500 -0.25000  0.00000  ), band residuals:
 res:  3.01E-05  1.07E-05  1.13E-06  2.22E-05  6.47E-05
 ene: -1.98E-01  9.79E-02  1.68E-01  1.71E-01  2.96E-01
 res:  1.64E-09  5.74E-10  1.89E-10  2.27E-09  3.30E-07
 ene: -1.98E-01  9.79E-02  1.68E-01  1.71E-01  2.96E-01
 vtowfk : number of one-way 3D ffts skipped in vtowfk until now =11
     eigenvalues (hartree) for    5  bands
              after    3 non-SCF iterations with    4 CG line minimizations
 -1.9828E-01  9.7949E-02  1.6804E-01  1.7095E-01  2.9571E-01
 non-scf iterations; kpt #     2  , k= ( -0.12500  0.50000  0.00000  ), band residuals:
 res:  8.07E-06  4.43E-05  2.07E-05  6.34E-07  9.26E-05
 ene: -1.36E-01 -3.30E-02  1.32E-01  1.59E-01  2.98E-01
 res:  7.72E-10  2.92E-09  1.06E-09  1.55E-10  4.92E-07
 ene: -1.36E-01 -3.30E-02  1.32E-01  1.59E-01  2.98E-01
 vtowfk : number of one-way 3D ffts skipped in vtowfk until now =12
     eigenvalues (hartree) for    5  bands
              after    3 non-SCF iterations with    4 CG line minimizations
 -1.3565E-01 -3.3020E-02  1.3242E-01  1.5905E-01  2.9750E-01
 non-scf iterations; kpt #     3  , k= ( -0.25000 -0.37500  0.00000  ), band residuals:
 res:  2.95E-05  8.27E-06  1.73E-05  2.18E-06  3.28E-04
 ene: -1.59E-01  3.49E-02  1.18E-01  1.35E-01  2.66E-01
 res:  2.96E-08  4.34E-09  1.04E-08  3.93E-10  7.86E-06
 ene: -1.59E-01  3.49E-02  1.18E-01  1.35E-01  2.66E-01
 vtowfk : number of one-way 3D ffts skipped in vtowfk until now =13
     eigenvalues (hartree) for    5  bands
              after    3 non-SCF iterations with    4 CG line minimizations
 -1.5918E-01  3.4854E-02  1.1767E-01  1.3491E-01  2.6602E-01
 non-scf iterations; kpt #     4  , k= ( -0.12500 -0.37500  0.12500  ), band residuals:
 res:  7.14E-06  2.00E-05  1.35E-05  3.60E-05  3.85E-03
 ene: -1.43E-01  1.17E-03  9.35E-02  1.45E-01  3.38E-01
 res:  2.79E-09  1.34E-07  2.76E-10  3.74E-07  2.75E-04
 ene: -1.43E-01  1.15E-03  9.35E-02  1.45E-01  3.23E-01
 vtowfk : number of one-way 3D ffts skipped in vtowfk until now =14
     eigenvalues (hartree) for    5  bands
              after    3 non-SCF iterations with    4 CG line minimizations
 -1.4326E-01  1.1450E-03  9.3528E-02  1.4526E-01  3.2295E-01
 non-scf iterations; kpt #     5  , k= ( -0.12500  0.25000  0.00000  ), band residuals:
 res:  1.52E-05  2.93E-05  1.45E-05  5.72E-07  1.13E-04
 ene: -1.79E-01  4.60E-02  1.31E-01  1.88E-01  3.17E-01
 res:  1.48E-09  2.75E-09  6.69E-10  1.16E-10  2.70E-07
 ene: -1.79E-01  4.60E-02  1.31E-01  1.88E-01  3.17E-01
 vtowfk : number of one-way 3D ffts skipped in vtowfk until now =15
     eigenvalues (hartree) for    5  bands
              after    3 non-SCF iterations with    4 CG line minimizations
 -1.7932E-01  4.5983E-02  1.3110E-01  1.8838E-01  3.1671E-01
 non-scf iterations; kpt #     6  , k= ( -0.25000  0.37500  0.00000  ), band residuals:
 res:  3.75E-06  3.03E-05  1.13E-05  5.36E-07  2.63E-05
 ene: -1.17E-01 -2.86E-02  6.85E-02  1.47E-01  2.84E-01
 res:  7.95E-11  1.67E-10  1.72E-11  1.73E-11  2.67E-09
 ene: -1.17E-01 -2.86E-02  6.85E-02  1.47E-01  2.84E-01
 vtowfk : number of one-way 3D ffts skipped in vtowfk until now =16
     eigenvalues (hartree) for    5  bands
              after    3 non-SCF iterations with    4 CG line minimizations
 -1.1693E-01 -2.8551E-02  6.8452E-02  1.4694E-01  2.8438E-01
 non-scf iterations; kpt #     7  , k= ( -0.37500  0.50000  0.00000  ), band residuals:
 res:  1.39E-05  8.99E-06  1.37E-05  3.88E-06  1.81E-03
 ene: -1.03E-01 -3.50E-02  8.91E-02  1.17E-01  2.50E-01
 res:  2.98E-08  2.47E-08  3.21E-08  1.07E-09  6.54E-06
 ene: -1.03E-01 -3.51E-02  8.91E-02  1.17E-01  2.49E-01
 vtowfk : number of one-way 3D ffts skipped in vtowfk until now =17
     eigenvalues (hartree) for    5  bands
              after    3 non-SCF iterations with    4 CG line minimizations
 -1.0336E-01 -3.5053E-02  8.9119E-02  1.1730E-01  2.4898E-01
 non-scf iterations; kpt #     8  , k= ( -0.25000  0.50000  0.12500  ), band residuals:
 res:  8.43E-06  1.22E-05  7.99E-06  3.19E-05  6.16E-05
 ene: -9.67E-02 -3.89E-02  6.58E-02  1.07E-01  3.05E-01
 res:  1.37E-10  1.42E-10  6.47E-11  4.43E-10  1.04E-07
 ene: -9.67E-02 -3.89E-02  6.58E-02  1.07E-01  3.05E-01
 vtowfk : number of one-way 3D ffts skipped in vtowfk until now =18
     eigenvalues (hartree) for    5  bands
              after    3 non-SCF iterations with    4 CG line minimizations
 -9.6672E-02 -3.8917E-02  6.5769E-02  1.0683E-01  3.0464E-01
 non-scf iterations; kpt #     9  , k= ( -0.12500  0.00000  0.00000  ), band residuals:
 res:  1.06E-05  1.72E-05  5.35E-06  4.18E-06  3.71E-04
 ene: -2.18E-01  1.58E-01  2.06E-01  2.06E-01  3.09E-01
 res:  8.84E-09  2.45E-08  3.50E-09  2.73E-08  2.41E-05
 ene: -2.18E-01  1.58E-01  2.06E-01  2.06E-01  3.09E-01
 vtowfk : number of one-way 3D ffts skipped in vtowfk until now =19
     eigenvalues (hartree) for    5  bands
              after    3 non-SCF iterations with    4 CG line minimizations
 -2.1830E-01  1.5795E-01  2.0645E-01  2.0645E-01  3.0872E-01
 non-scf iterations; kpt #    10  , k= ( -0.37500  0.00000  0.00000  ), band residuals:
 res:  1.98E-05  4.97E-05  5.43E-07  4.08E-06  5.98E-05
 ene: -1.63E-01 -3.30E-03  1.77E-01  1.77E-01  2.78E-01
 res:  5.78E-10  6.05E-10  5.85E-10  8.72E-10  4.31E-08
 ene: -1.63E-01 -3.30E-03  1.77E-01  1.77E-01  2.78E-01
 vtowfk : number of one-way 3D ffts skipped in vtowfk until now =20
     eigenvalues (hartree) for    5  bands
              after    3 non-SCF iterations with    4 CG line minimizations
 -1.6275E-01 -3.3024E-03  1.7672E-01  1.7672E-01  2.7786E-01
 Total charge density [el/Bohr^3]
      Maximum=    8.6394E-02  at reduced coord.    0.1000    0.1000    0.7000
      Minimum=    3.3827E-03  at reduced coord.    0.5000    0.5000    0.5000
   Integrated=    8.0000E+00
 ETOT  2  -8.8724810028749    -5.441E-03 2.747E-04 1.581E-01
 scprqt: <Vxc>= -3.5418507E-01 hartree

 Pulay update with  1 previous iterations:
 mixing of old trial potential : alpha(m:m-4)=   1.16     -0.158
 scfcv: previous iteration took 00 [s]

 ITER STEP NUMBER     3
 vtorho : nnsclo_now=1, note that nnsclo,dbl_nnsclo,istep=0 0 3
 non-scf iterations; kpt #     1  , k= ( -0.12500 -0.25000  0.00000  ), band residuals:
 res:  6.02E-07  1.75E-07  1.39E-08  4.70E-07  9.07E-07
 ene: -1.99E-01  9.77E-02  1.68E-01  1.71E-01  2.94E-01
 vtowfk : number of one-way 3D ffts skipped in vtowfk until now =21
     eigenvalues (hartree) for    5  bands
              after    2 non-SCF iterations with    4 CG line minimizations
 -1.9891E-01  9.7675E-02  1.6789E-01  1.7076E-01  2.9426E-01
 non-scf iterations; kpt #     2  , k= ( -0.12500  0.50000  0.00000  ), band residuals:
 res:  1.85E-07  8.29E-07  4.38E-07  1.00E-08  1.38E-06
 ene: -1.36E-01 -3.39E-02  1.32E-01  1.59E-01  2.96E-01
 vtowfk : number of one-way 3D ffts skipped in vtowfk until now =22
     eigenvalues (hartree) for    5  bands
              after    2 non-SCF iterations with    4 CG line minimizations
 -1.3598E-01 -3.3858E-02  1.3200E-01  1.5896E-01  2.9592E-01
 non-scf iterations; kpt #     3  , k= ( -0.25000 -0.37500  0.00000  ), band residuals:
 res:  6.95E-07  1.26E-07  3.62E-07  9.11E-09  1.03E-06
 ene: -1.60E-01  3.47E-02  1.17E-01  1.35E-01  2.64E-01
 vtowfk : number of one-way 3D ffts skipped in vtowfk until now =23
     eigenvalues (hartree) for    5  bands
              after    2 non-SCF iterations with    4 CG line minimizations
 -1.5971E-01  3.4686E-02  1.1705E-01  1.3462E-01  2.6405E-01
 non-scf iterations; kpt #     4  , k= ( -0.12500 -0.37500  0.12500  ), band residuals:
 res:  4.67E-07  2.98E-07  7.31E-07  1.65E-07  2.60E-06
 ene: -1.44E-01  7.18E-04  9.27E-02  1.45E-01  3.21E-01
 vtowfk : number of one-way 3D ffts skipped in vtowfk until now =24
     eigenvalues (hartree) for    5  bands
              after    2 non-SCF iterations with    4 CG line minimizations
 -1.4371E-01  7.1847E-04  9.2737E-02  1.4491E-01  3.2131E-01
 non-scf iterations; kpt #     5  , k= ( -0.12500  0.25000  0.00000  ), band residuals:
 res:  3.69E-07  4.94E-07  3.72E-07  4.38E-09  7.34E-07
 ene: -1.80E-01  4.55E-02  1.31E-01  1.89E-01  3.15E-01
 vtowfk : number of one-way 3D ffts skipped in vtowfk until now =25
     eigenvalues (hartree) for    5  bands
              after    2 non-SCF iterations with    4 CG line minimizations
 -1.7988E-01  4.5519E-02  1.3057E-01  1.8851E-01  3.1547E-01
 non-scf iterations; kpt #     6  , k= ( -0.25000  0.37500  0.00000  ), band residuals:
 res:  1.06E-07  5.98E-07  2.54E-07  8.46E-09  4.60E-07
 ene: -1.17E-01 -2.91E-02  6.74E-02  1.47E-01  2.82E-01
 vtowfk : number of one-way 3D ffts skipped in vtowfk until now =26
     eigenvalues (hartree) for    5  bands
              after    2 non-SCF iterations with    4 CG line minimizations
 -1.1722E-01 -2.9058E-02  6.7438E-02  1.4676E-01  2.8233E-01
 non-scf iterations; kpt #     7  , k= ( -0.37500  0.50000  0.00000  ), band residuals:
 res:  4.42E-07  1.81E-07  1.16E-07  7.27E-09  1.58E-06
 ene: -1.04E-01 -3.53E-02  8.83E-02  1.17E-01  2.47E-01
 vtowfk : number of one-way 3D ffts skipped in vtowfk until now =27
     eigenvalues (hartree) for    5  bands
              after    2 non-SCF iterations with    4 CG line minimizations
 -1.0374E-01 -3.5270E-02  8.8275E-02  1.1695E-01  2.4663E-01
 non-scf iterations; kpt #     8  , k= ( -0.25000  0.50000  0.12500  ), band residuals:
 res:  1.90E-07  2.44E-07  1.70E-07  7.69E-07  1.13E-06
 ene: -9.69E-02 -3.92E-02  6.47E-02  1.06E-01  3.03E-01
 vtowfk : number of one-way 3D ffts skipped in vtowfk until now =28
     eigenvalues (hartree) for    5  bands
              after    2 non-SCF iterations with    4 CG line minimizations
 -9.6940E-02 -3.9182E-02  6.4650E-02  1.0610E-01  3.0278E-01
 non-scf iterations; kpt #     9  , k= ( -0.12500  0.00000  0.00000  ), band residuals:
 res:  3.01E-07  1.92E-07  3.83E-08  3.93E-08  1.24E-05
 ene: -2.19E-01  1.58E-01  2.07E-01  2.07E-01  3.07E-01
 vtowfk : number of one-way 3D ffts skipped in vtowfk until now =29
     eigenvalues (hartree) for    5  bands
              after    2 non-SCF iterations with    4 CG line minimizations
 -2.1898E-01  1.5776E-01  2.0660E-01  2.0660E-01  3.0744E-01
 non-scf iterations; kpt #    10  , k= ( -0.37500  0.00000  0.00000  ), band residuals:
 res:  4.14E-07  8.83E-07  7.63E-09  7.67E-09  1.13E-06
 ene: -1.63E-01 -4.05E-03  1.77E-01  1.77E-01  2.76E-01
 vtowfk : number of one-way 3D ffts skipped in vtowfk until now =30
     eigenvalues (hartree) for    5  bands
              after    2 non-SCF iterations with    4 CG line minimizations
 -1.6323E-01 -4.0523E-03  1.7678E-01  1.7678E-01  2.7634E-01
 Total charge density [el/Bohr^3]
      Maximum=    8.5835E-02  at reduced coord.    0.1000    0.1000    0.7000
      Minimum=    3.5041E-03  at reduced coord.    0.5000    0.5000    0.5000
   Integrated=    8.0000E+00
 ETOT  3  -8.8725585064774    -7.750E-05 1.239E-05 2.938E-03
 scprqt: <Vxc>= -3.5451780E-01 hartree

 Pulay update with  2 previous iterations:
 mixing of old trial potential : alpha(m:m-4)=   1.24     -0.256      0.199E-01
 scfcv: previous iteration took 00 [s]

 ITER STEP NUMBER     4
 vtorho : nnsclo_now=1, note that nnsclo,dbl_nnsclo,istep=0 0 4
 non-scf iterations; kpt #     1  , k= ( -0.12500 -0.25000  0.00000  ), band residuals:
 res:  9.13E-09  2.15E-09  3.15E-10  3.99E-09  1.88E-08
 ene: -1.99E-01  9.76E-02  1.68E-01  1.71E-01  2.94E-01
 vtowfk : number of one-way 3D ffts skipped in vtowfk until now =31
     eigenvalues (hartree) for    5  bands
              after    2 non-SCF iterations with    4 CG line minimizations
 -1.9903E-01  9.7583E-02  1.6781E-01  1.7067E-01  2.9406E-01
 non-scf iterations; kpt #     2  , k= ( -0.12500  0.50000  0.00000  ), band residuals:
 res:  2.50E-09  1.09E-08  5.17E-09  4.23E-11  2.35E-08
 ene: -1.36E-01 -3.40E-02  1.32E-01  1.59E-01  2.96E-01
 vtowfk : number of one-way 3D ffts skipped in vtowfk until now =32
     eigenvalues (hartree) for    5  bands
              after    2 non-SCF iterations with    4 CG line minimizations
 -1.3606E-01 -3.4009E-02  1.3189E-01  1.5888E-01  2.9571E-01
 non-scf iterations; kpt #     3  , k= ( -0.25000 -0.37500  0.00000  ), band residuals:
 res:  9.91E-09  1.32E-09  4.54E-09  1.47E-10  2.53E-08
 ene: -1.60E-01  3.46E-02  1.17E-01  1.35E-01  2.64E-01
 vtowfk : number of one-way 3D ffts skipped in vtowfk until now =33
     eigenvalues (hartree) for    5  bands
              after    2 non-SCF iterations with    4 CG line minimizations
 -1.5982E-01  3.4610E-02  1.1692E-01  1.3453E-01  2.6378E-01
 non-scf iterations; kpt #     4  , k= ( -0.12500 -0.37500  0.12500  ), band residuals:
 res:  6.56E-09  4.09E-09  9.24E-09  1.64E-09  2.30E-07
 ene: -1.44E-01  6.15E-04  9.26E-02  1.45E-01  3.21E-01
 vtowfk : number of one-way 3D ffts skipped in vtowfk until now =34
     eigenvalues (hartree) for    5  bands
              after    2 non-SCF iterations with    4 CG line minimizations
 -1.4381E-01  6.1467E-04  9.2590E-02  1.4481E-01  3.2109E-01
 non-scf iterations; kpt #     5  , k= ( -0.12500  0.25000  0.00000  ), band residuals:
 res:  5.51E-09  5.51E-09  4.39E-09  1.52E-10  1.60E-08
 ene: -1.80E-01  4.54E-02  1.30E-01  1.88E-01  3.15E-01
 vtowfk : number of one-way 3D ffts skipped in vtowfk until now =35
     eigenvalues (hartree) for    5  bands
              after    2 non-SCF iterations with    4 CG line minimizations
 -1.8000E-01  4.5409E-02  1.3044E-01  1.8844E-01  3.1532E-01
 non-scf iterations; kpt #     6  , k= ( -0.25000  0.37500  0.00000  ), band residuals:
 res:  1.34E-09  7.52E-09  3.67E-09  1.63E-10  7.00E-09
 ene: -1.17E-01 -2.92E-02  6.73E-02  1.47E-01  2.82E-01
 vtowfk : number of one-way 3D ffts skipped in vtowfk until now =36
     eigenvalues (hartree) for    5  bands
              after    2 non-SCF iterations with    4 CG line minimizations
 -1.1731E-01 -2.9170E-02  6.7266E-02  1.4668E-01  2.8206E-01
 non-scf iterations; kpt #     7  , k= ( -0.37500  0.50000  0.00000  ), band residuals:
 res:  5.57E-09  1.86E-09  1.48E-09  9.69E-11  1.64E-08
 ene: -1.04E-01 -3.53E-02  8.81E-02  1.17E-01  2.46E-01
 vtowfk : number of one-way 3D ffts skipped in vtowfk until now =37
     eigenvalues (hartree) for    5  bands
              after    2 non-SCF iterations with    4 CG line minimizations
 -1.0383E-01 -3.5348E-02  8.8125E-02  1.1686E-01  2.4631E-01
 non-scf iterations; kpt #     8  , k= ( -0.25000  0.50000  0.12500  ), band residuals:
 res:  2.40E-09  2.93E-09  2.64E-09  9.53E-09  1.97E-08
 ene: -9.70E-02 -3.93E-02  6.45E-02  1.06E-01  3.03E-01
 vtowfk : number of one-way 3D ffts skipped in vtowfk until now =38
     eigenvalues (hartree) for    5  bands
              after    2 non-SCF iterations with    4 CG line minimizations
 -9.7021E-02 -3.9265E-02  6.4467E-02  1.0597E-01  3.0251E-01
 non-scf iterations; kpt #     9  , k= ( -0.12500  0.00000  0.00000  ), band residuals:
 res:  5.25E-09  9.71E-10  3.80E-11  4.33E-11  8.04E-07
 ene: -2.19E-01  1.58E-01  2.07E-01  2.07E-01  3.07E-01
 vtowfk : number of one-way 3D ffts skipped in vtowfk until now =39
     eigenvalues (hartree) for    5  bands
              after    2 non-SCF iterations with    4 CG line minimizations
 -2.1911E-01  1.5767E-01  2.0652E-01  2.0652E-01  3.0728E-01
 non-scf iterations; kpt #    10  , k= ( -0.37500  0.00000  0.00000  ), band residuals:
 res:  6.00E-09  1.09E-08  5.32E-11  5.37E-11  1.40E-08
 ene: -1.63E-01 -4.19E-03  1.77E-01  1.77E-01  2.76E-01
 vtowfk : number of one-way 3D ffts skipped in vtowfk until now =40
     eigenvalues (hartree) for    5  bands
              after    2 non-SCF iterations with    4 CG line minimizations
 -1.6334E-01 -4.1936E-03  1.7671E-01  1.7671E-01  2.7613E-01
 Total charge density [el/Bohr^3]
      Maximum=    8.5828E-02  at reduced coord.    0.1000    0.1000    0.7000
      Minimum=    3.5234E-03  at reduced coord.    0.5000    0.5000    0.5000
   Integrated=    8.0000E+00
 ETOT  4  -8.8725593989852    -8.925E-07 8.043E-07 1.103E-05
 scprqt: <Vxc>= -3.5455345E-01 hartree

 Pulay update with  3 previous iterations:
 mixing of old trial potential : alpha(m:m-4)=   1.18     -0.218      0.410E-01 -0.361E-02
 scfcv: previous iteration took 00 [s]

 ITER STEP NUMBER     5
 vtorho : nnsclo_now=1, note that nnsclo,dbl_nnsclo,istep=0 0 5
 non-scf iterations; kpt #     1  , k= ( -0.12500 -0.25000  0.00000  ), band residuals:
 res:  6.38E-11  1.96E-11  1.09E-12  2.29E-11  9.30E-11
 ene: -1.99E-01  9.76E-02  1.68E-01  1.71E-01  2.94E-01
 vtowfk : number of one-way 3D ffts skipped in vtowfk until now =41
     eigenvalues (hartree) for    5  bands
              after    2 non-SCF iterations with    4 CG line minimizations
 -1.9905E-01  9.7562E-02  1.6778E-01  1.7065E-01  2.9404E-01
 non-scf iterations; kpt #     2  , k= ( -0.12500  0.50000  0.00000  ), band residuals:
 res:  1.94E-11  8.92E-11  2.79E-11  8.67E-13  6.37E-10
 ene: -1.36E-01 -3.40E-02  1.32E-01  1.59E-01  2.96E-01
 vtowfk : number of one-way 3D ffts skipped in vtowfk until now =42
     eigenvalues (hartree) for    5  bands
              after    2 non-SCF iterations with    4 CG line minimizations
 -1.3609E-01 -3.4035E-02  1.3187E-01  1.5886E-01  2.9568E-01
 non-scf iterations; kpt #     3  , k= ( -0.25000 -0.37500  0.00000  ), band residuals:
 res:  6.72E-11  1.42E-11  2.04E-11  2.35E-12  1.32E-10
 ene: -1.60E-01  3.46E-02  1.17E-01  1.35E-01  2.64E-01
 vtowfk : number of one-way 3D ffts skipped in vtowfk until now =43
     eigenvalues (hartree) for    5  bands
              after    2 non-SCF iterations with    4 CG line minimizations
 -1.5984E-01  3.4592E-02  1.1689E-01  1.3451E-01  2.6375E-01
 non-scf iterations; kpt #     4  , k= ( -0.12500 -0.37500  0.12500  ), band residuals:
 res:  4.92E-11  3.59E-11  3.78E-11  1.17E-11  3.69E-09
 ene: -1.44E-01  5.93E-04  9.26E-02  1.45E-01  3.21E-01
 vtowfk : number of one-way 3D ffts skipped in vtowfk until now =44
     eigenvalues (hartree) for    5  bands
              after    2 non-SCF iterations with    4 CG line minimizations
 -1.4383E-01  5.9313E-04  9.2563E-02  1.4478E-01  3.2106E-01
 non-scf iterations; kpt #     5  , k= ( -0.12500  0.25000  0.00000  ), band residuals:
 res:  3.36E-11  6.80E-11  2.19E-11  1.00E-12  5.12E-10
 ene: -1.80E-01  4.54E-02  1.30E-01  1.88E-01  3.15E-01
 vtowfk : number of one-way 3D ffts skipped in vtowfk until now =45
     eigenvalues (hartree) for    5  bands
              after    2 non-SCF iterations with    4 CG line minimizations
 -1.8002E-01  4.5387E-02  1.3042E-01  1.8842E-01  3.1530E-01
 non-scf iterations; kpt #     6  , k= ( -0.25000  0.37500  0.00000  ), band residuals:
 res:  1.13E-11  6.84E-11  2.59E-11  2.68E-12  7.35E-11
 ene: -1.17E-01 -2.92E-02  6.72E-02  1.47E-01  2.82E-01
 vtowfk : number of one-way 3D ffts skipped in vtowfk until now =46
     eigenvalues (hartree) for    5  bands
              after    2 non-SCF iterations with    4 CG line minimizations
 -1.1733E-01 -2.9193E-02  6.7238E-02  1.4666E-01  2.8203E-01
 non-scf iterations; kpt #     7  , k= ( -0.37500  0.50000  0.00000  ), band residuals:
 res:  4.88E-11  2.24E-11  7.51E-12  1.92E-12  7.88E-10
 ene: -1.04E-01 -3.54E-02  8.81E-02  1.17E-01  2.46E-01
 vtowfk : number of one-way 3D ffts skipped in vtowfk until now =47
     eigenvalues (hartree) for    5  bands
              after    2 non-SCF iterations with    4 CG line minimizations
 -1.0385E-01 -3.5367E-02  8.8097E-02  1.1683E-01  2.4627E-01
 non-scf iterations; kpt #     8  , k= ( -0.25000  0.50000  0.12500  ), band residuals:
 res:  2.16E-11  3.32E-11  1.13E-11  3.45E-11  1.59E-10
 ene: -9.70E-02 -3.93E-02  6.44E-02  1.06E-01  3.02E-01
 vtowfk : number of one-way 3D ffts skipped in vtowfk until now =48
     eigenvalues (hartree) for    5  bands
              after    2 non-SCF iterations with    4 CG line minimizations
 -9.7041E-02 -3.9285E-02  6.4437E-02  1.0594E-01  3.0248E-01
 non-scf iterations; kpt #     9  , k= ( -0.12500  0.00000  0.00000  ), band residuals:
 res:  3.80E-11  2.74E-11  3.73E-12  3.76E-12  2.90E-07
 ene: -2.19E-01  1.58E-01  2.07E-01  2.07E-01  3.07E-01
 vtowfk : number of one-way 3D ffts skipped in vtowfk until now =49
     eigenvalues (hartree) for    5  bands
              after    2 non-SCF iterations with    4 CG line minimizations
 -2.1913E-01  1.5765E-01  2.0650E-01  2.0650E-01  3.0725E-01
 non-scf iterations; kpt #    10  , k= ( -0.37500  0.00000  0.00000  ), band residuals:
 res:  4.39E-11  1.00E-10  1.06E-12  1.06E-12  1.25E-10
 ene: -1.63E-01 -4.22E-03  1.77E-01  1.77E-01  2.76E-01
 vtowfk : number of one-way 3D ffts skipped in vtowfk until now =50
     eigenvalues (hartree) for    5  bands
              after    2 non-SCF iterations with    4 CG line minimizations
 -1.6336E-01 -4.2183E-03  1.7669E-01  1.7669E-01  2.7611E-01
 Total charge density [el/Bohr^3]
      Maximum=    8.5825E-02  at reduced coord.    0.1000    0.1000    0.7000
      Minimum=    3.5245E-03  at reduced coord.    0.5000    0.5000    0.5000
   Integrated=    8.0000E+00
 ETOT  5  -8.8725594041038    -5.119E-09 2.902E-07 2.947E-08
 scprqt: <Vxc>= -3.5455633E-01 hartree

 At SCF step    5, etot is converged : 
  for the second time, diff in etot=  5.119E-09 < toldfe=  1.000E-06

 Cartesian components of stress tensor (hartree/bohr^3)
  sigma(1 1)=  2.93016435E-05  sigma(3 2)=  0.00000000E+00
  sigma(2 2)=  2.93016435E-05  sigma(3 1)=  0.00000000E+00
  sigma(3 3)=  2.93016435E-05  sigma(2 1)=  0.00000000E+00

 fftdatar_write: About to write data to: tbase3_5o_DS1_DEN with iomode IO_MODE_FORTRAN
 IO operation completed. cpu_time:       0.0 [s], walltime:       0.0 [s]
================================================================================

 ----iterations are completed or convergence reached----


 === Gap info ===
  >>>> For spin  1
   Minimum optical gap =   2.7053 [eV], located at k-point      :  -0.3750  0.0000  0.0000
   Fundamental gap     =   1.0821 [eV], Top of valence bands at :  -0.1250  0.0000  0.0000
                                        Bottom of conduction at :  -0.3750  0.5000  0.0000
 Mean square residual over all n,k,spin=   5.9507E-09; max=  2.9021E-07
  -0.1250 -0.2500  0.0000    1  9.29785E-11 kpt; spin; max resid(k); each band:
  6.38E-11 1.96E-11 1.09E-12 2.29E-11 9.30E-11
  -0.1250  0.5000  0.0000    1  6.36772E-10 kpt; spin; max resid(k); each band:
  1.94E-11 8.92E-11 2.79E-11 8.67E-13 6.37E-10
  -0.2500 -0.3750  0.0000    1  1.31916E-10 kpt; spin; max resid(k); each band:
  6.72E-11 1.42E-11 2.04E-11 2.35E-12 1.32E-10
  -0.1250 -0.3750  0.1250    1  3.69147E-09 kpt; spin; max resid(k); each band:
  4.92E-11 3.59E-11 3.78E-11 1.17E-11 3.69E-09
  -0.1250  0.2500  0.0000    1  5.11867E-10 kpt; spin; max resid(k); each band:
  3.36E-11 6.80E-11 2.19E-11 1.00E-12 5.12E-10
  -0.2500  0.3750  0.0000    1  7.35009E-11 kpt; spin; max resid(k); each band:
  1.13E-11 6.84E-11 2.59E-11 2.68E-12 7.35E-11
  -0.3750  0.5000  0.0000    1  7.88178E-10 kpt; spin; max resid(k); each band:
  4.88E-11 2.24E-11 7.51E-12 1.92E-12 7.88E-10
  -0.2500  0.5000  0.1250    1  1.59390E-10 kpt; spin; max resid(k); each band:
  2.16E-11 3.32E-11 1.13E-11 3.45E-11 1.59E-10
  -0.1250  0.0000  0.0000    1  2.90207E-07 kpt; spin; max resid(k); each band:
  3.80E-11 2.74E-11 3.73E-12 3.76E-12 2.90E-07
  -0.3750  0.0000  0.0000    1  1.24695E-10 kpt; spin; max resid(k); each band:
  4.39E-11 1.00E-10 1.06E-12 1.06E-12 1.25E-10

 outwf: write wavefunction to file tbase3_5o_DS1_WFK, with iomode -1
 outwf with iomode: -1, cpu_time:     0.00[s], walltime:     0.06 [s]
 prteigrs : about to open file tbase3_5o_DS1_EIG
 Fermi (or HOMO) energy (hartree) =   0.20650   Average Vxc (hartree)=  -0.35456
 Eigenvalues (hartree) for nkpt=  10  k points:
 kpt#   1, nband=  5, wtk=  0.09375, kpt= -0.1250 -0.2500  0.0000 (reduced coord)
  -0.19905    0.09756    0.16778    0.17065    0.29404
 kpt#   2, nband=  5, wtk=  0.09375, kpt= -0.1250  0.5000  0.0000 (reduced coord)
  -0.13609   -0.03403    0.13187    0.15886    0.29568
 kpt#   3, nband=  5, wtk=  0.09375, kpt= -0.2500 -0.3750  0.0000 (reduced coord)
  -0.15984    0.03459    0.11689    0.13451    0.26375
 kpt#   4, nband=  5, wtk=  0.18750, kpt= -0.1250 -0.3750  0.1250 (reduced coord)
  -0.14383    0.00059    0.09256    0.14478    0.32106
 kpt#   5, nband=  5, wtk=  0.09375, kpt= -0.1250  0.2500  0.0000 (reduced coord)
  -0.18002    0.04539    0.13042    0.18842    0.31530
 kpt#   6, nband=  5, wtk=  0.09375, kpt= -0.2500  0.3750  0.0000 (reduced coord)
  -0.11733   -0.02919    0.06724    0.14666    0.28203
 kpt#   7, nband=  5, wtk=  0.09375, kpt= -0.3750  0.5000  0.0000 (reduced coord)
  -0.10385   -0.03537    0.08810    0.11683    0.24627
 kpt#   8, nband=  5, wtk=  0.18750, kpt= -0.2500  0.5000  0.1250 (reduced coord)
  -0.09704   -0.03929    0.06444    0.10594    0.30248
 kpt#   9, nband=  5, wtk=  0.03125, kpt= -0.1250  0.0000  0.0000 (reduced coord)
  -0.21913    0.15765    0.20650    0.20650    0.30725
 kpt#  10, nband=  5, wtk=  0.03125, kpt= -0.3750  0.0000  0.0000 (reduced coord)
  -0.16336   -0.00422    0.17669    0.17669    0.27611
 Total charge density [el/Bohr^3]
      Maximum=    8.5825E-02  at reduced coord.    0.1000    0.1000    0.7000
 Next maximum=    8.5825E-02  at reduced coord.    0.1500    0.1500    0.5500
      Minimum=    3.5245E-03  at reduced coord.    0.5000    0.5000    0.5000
 Next minimum=    3.5245E-03  at reduced coord.    0.7500    0.7500    0.7500
   Integrated=    8.0000E+00

 Cartesian components of stress tensor (hartree/bohr^3)
  sigma(1 1)=  2.93016435E-05  sigma(3 2)=  0.00000000E+00
  sigma(2 2)=  2.93016435E-05  sigma(3 1)=  0.00000000E+00
  sigma(3 3)=  2.93016435E-05  sigma(2 1)=  0.00000000E+00

-Cartesian components of stress tensor (GPa)         [Pressure= -8.6208E-01 GPa]
- sigma(1 1)=  8.62083970E-01  sigma(3 2)=  0.00000000E+00
- sigma(2 2)=  8.62083970E-01  sigma(3 1)=  0.00000000E+00
- sigma(3 3)=  8.62083970E-01  sigma(2 1)=  0.00000000E+00

================================================================================
== DATASET  2 ==================================================================
-   nproc =    1

 mkfilename : getden/=0, take file _DEN from output of DATASET   1.


 getdim_nloc : deduce lmnmax  =   4, lnmax  =   2,
                      lmnmaxso=   4, lnmaxso=   2.
 Exchange-correlation functional for the present dataset will be:
  LDA: new Teter (4/93) with spin-polarized option - ixc=1
 Citation for XC functional:
  S. Goedecker, M. Teter, J. Huetter, PRB 54, 1703 (1996)

 Unit cell volume ucvol=  2.6655244E+02 bohr^3
 Angles (23,13,12)=  6.00000000E+01  6.00000000E+01  6.00000000E+01 degrees

 getcut: wavevector=  0.0000  0.0000  0.0000  ngfft=  20  20  20
         ecut(hartree)=      8.000   => boxcut(ratio)=   2.17447
 wfconv:     8 bands initialized randomly with npw=   136, for ikpt=     1
 wfconv:     8 bands initialized randomly with npw=   284, for ikpt=     2
 wfconv:     8 bands initialized randomly with npw=   281, for ikpt=     3
 wfconv:     8 bands initialized randomly with npw=   287, for ikpt=     4
 wfconv:     8 bands initialized randomly with npw=   290, for ikpt=     5
 wfconv:     8 bands initialized randomly with npw=   296, for ikpt=     6
 wfconv:     8 bands initialized randomly with npw=   295, for ikpt=     7
 wfconv:     8 bands initialized randomly with npw=   295, for ikpt=     8
 wfconv:     8 bands initialized randomly with npw=   295, for ikpt=     9
 wfconv:     8 bands initialized randomly with npw=   286, for ikpt=    10
 wfconv:     8 bands initialized randomly with npw=   142, for ikpt=    11
 wfconv:     8 bands initialized randomly with npw=   287, for ikpt=    12
 wfconv:     8 bands initialized randomly with npw=   299, for ikpt=    13
 wfconv:     8 bands initialized randomly with npw=   295, for ikpt=    14
 wfconv:     8 bands initialized randomly with npw=   295, for ikpt=    15
 wfconv:     8 bands initialized randomly with npw=   295, for ikpt=    16
 wfconv:     8 bands initialized randomly with npw=   303, for ikpt=    17
 wfconv:     8 bands initialized randomly with npw=   298, for ikpt=    18
 wfconv:     8 bands initialized randomly with npw=   302, for ikpt=    19
 wfconv:     8 bands initialized randomly with npw=   286, for ikpt=    20
 wfconv:     8 bands initialized randomly with npw=   290, for ikpt=    21
 wfconv:     8 bands initialized randomly with npw=   294, for ikpt=    22
 wfconv:     8 bands initialized randomly with npw=   151, for ikpt=    23
 wfconv:     8 bands initialized randomly with npw=   294, for ikpt=    24
 wfconv:     8 bands initialized randomly with npw=   288, for ikpt=    25
 wfconv:     8 bands initialized randomly with npw=   280, for ikpt=    26
 wfconv:     8 bands initialized randomly with npw=   288, for ikpt=    27
 wfconv:     8 bands initialized randomly with npw=   284, for ikpt=    28
 wfconv:     8 bands initialized randomly with npw=   284, for ikpt=    29
 wfconv:     8 bands initialized randomly with npw=   285, for ikpt=    30
 wfconv:     8 bands initialized randomly with npw=   285, for ikpt=    31
 wfconv:     8 bands initialized randomly with npw=   289, for ikpt=    32
 wfconv:     8 bands initialized randomly with npw=   295, for ikpt=    33
 wfconv:     8 bands initialized randomly with npw=   295, for ikpt=    34
 wfconv:     8 bands initialized randomly with npw=   295, for ikpt=    35
 wfconv:     8 bands initialized randomly with npw=   297, for ikpt=    36
 wfconv:     8 bands initialized randomly with npw=   291, for ikpt=    37
 wfconv:     8 bands initialized randomly with npw=   293, for ikpt=    38
 wfconv:     8 bands initialized randomly with npw=   287, for ikpt=    39
 wfconv:     8 bands initialized randomly with npw=   283, for ikpt=    40
 About to read data(r) from: tbase3_5o_DS1_DEN

================================================================================

          - hdr_check: checking restart file header for consistency -


        current calculation                         restart file
        -------------------                         ------------

  calculation expects a density         |  input file contains a density
. ABINIT  code version 8.6.3            |  ABINIT  code version 8.6.3
. date 20180414 bantot  320 natom    2  |  date 20180414 bantot   50 natom    2
  nkpt  40 nsym 48 ngfft  20,  20,  20  |  nkpt  10 nsym 48 ngfft  20,  20,  20
  ntypat  1 ecut_eff   8.0000000        |  ntypat  1 ecut_eff   8.0000000
  usepaw  0                             |  usepaw  0
  usewvl  0                             |  usewvl  0
  rprimd:                               |  rprimd:
     0.0000000   5.1080000   5.1080000  |     0.0000000   5.1080000   5.1080000
     5.1080000   0.0000000   5.1080000  |     5.1080000   0.0000000   5.1080000
     5.1080000   5.1080000   0.0000000  |     5.1080000   5.1080000   0.0000000
  symafm:                               |  symafm:
    1  1  1  1  1  1  1  1  1  1  1  1  |    1  1  1  1  1  1  1  1  1  1  1  1
    1  1  1  1  1  1  1  1  1  1  1  1  |    1  1  1  1  1  1  1  1  1  1  1  1
    1  1  1  1  1  1  1  1  1  1  1  1  |    1  1  1  1  1  1  1  1  1  1  1  1
    1  1  1  1  1  1  1  1  1  1  1  1  |    1  1  1  1  1  1  1  1  1  1  1  1
  symrel:                               |  symrel:
    1  0  0  0  1  0  0  0  1           |    1  0  0  0  1  0  0  0  1
   -1  0  0  0 -1  0  0  0 -1           |   -1  0  0  0 -1  0  0  0 -1
    0 -1  1  0 -1  0  1 -1  0           |    0 -1  1  0 -1  0  1 -1  0
    0  1 -1  0  1  0 -1  1  0           |    0  1 -1  0  1  0 -1  1  0
   -1  0  0 -1  0  1 -1  1  0           |   -1  0  0 -1  0  1 -1  1  0
    1  0  0  1  0 -1  1 -1  0           |    1  0  0  1  0 -1  1 -1  0
    0  1 -1  1  0 -1  0  0 -1           |    0  1 -1  1  0 -1  0  0 -1
    0 -1  1 -1  0  1  0  0  1           |    0 -1  1 -1  0  1  0  0  1
   -1  0  0 -1  1  0 -1  0  1           |   -1  0  0 -1  1  0 -1  0  1
    1  0  0  1 -1  0  1  0 -1           |    1  0  0  1 -1  0  1  0 -1
    0 -1  1  1 -1  0  0 -1  0           |    0 -1  1  1 -1  0  0 -1  0
    0  1 -1 -1  1  0  0  1  0           |    0  1 -1 -1  1  0  0  1  0
    1  0  0  0  0  1  0  1  0           |    1  0  0  0  0  1  0  1  0
   -1  0  0  0  0 -1  0 -1  0           |   -1  0  0  0  0 -1  0 -1  0
    0  1 -1  0  0 -1  1  0 -1           |    0  1 -1  0  0 -1  1  0 -1
    0 -1  1  0  0  1 -1  0  1           |    0 -1  1  0  0  1 -1  0  1
   -1  0  1 -1  1  0 -1  0  0           |   -1  0  1 -1  1  0 -1  0  0
    1  0 -1  1 -1  0  1  0  0           |    1  0 -1  1 -1  0  1  0  0
    0 -1  0  1 -1  0  0 -1  1           |    0 -1  0  1 -1  0  0 -1  1
    0  1  0 -1  1  0  0  1 -1           |    0  1  0 -1  1  0  0  1 -1
    1  0 -1  0  0 -1  0  1 -1           |    1  0 -1  0  0 -1  0  1 -1
   -1  0  1  0  0  1  0 -1  1           |   -1  0  1  0  0  1  0 -1  1
    0  1  0  0  0  1  1  0  0           |    0  1  0  0  0  1  1  0  0
    0 -1  0  0  0 -1 -1  0  0           |    0 -1  0  0  0 -1 -1  0  0
    1  0 -1  0  1 -1  0  0 -1           |    1  0 -1  0  1 -1  0  0 -1
   -1  0  1  0 -1  1  0  0  1           |   -1  0  1  0 -1  1  0  0  1
    0 -1  0  0 -1  1  1 -1  0           |    0 -1  0  0 -1  1  1 -1  0
    0  1  0  0  1 -1 -1  1  0           |    0  1  0  0  1 -1 -1  1  0
   -1  0  1 -1  0  0 -1  1  0           |   -1  0  1 -1  0  0 -1  1  0
    1  0 -1  1  0  0  1 -1  0           |    1  0 -1  1  0  0  1 -1  0
    0  1  0  1  0  0  0  0  1           |    0  1  0  1  0  0  0  0  1
    0 -1  0 -1  0  0  0  0 -1           |    0 -1  0 -1  0  0  0  0 -1
    0  0 -1  0  1 -1  1  0 -1           |    0  0 -1  0  1 -1  1  0 -1
    0  0  1  0 -1  1 -1  0  1           |    0  0  1  0 -1  1 -1  0  1
    1 -1  0  0 -1  1  0 -1  0           |    1 -1  0  0 -1  1  0 -1  0
   -1  1  0  0  1 -1  0  1  0           |   -1  1  0  0  1 -1  0  1  0
    0  0  1  1  0  0  0  1  0           |    0  0  1  1  0  0  0  1  0
    0  0 -1 -1  0  0  0 -1  0           |    0  0 -1 -1  0  0  0 -1  0
   -1  1  0 -1  0  0 -1  0  1           |   -1  1  0 -1  0  0 -1  0  1
    1 -1  0  1  0  0  1  0 -1           |    1 -1  0  1  0  0  1  0 -1
    0  0  1  0  1  0  1  0  0           |    0  0  1  0  1  0  1  0  0
    0  0 -1  0 -1  0 -1  0  0           |    0  0 -1  0 -1  0 -1  0  0
    1 -1  0  0 -1  0  0 -1  1           |    1 -1  0  0 -1  0  0 -1  1
   -1  1  0  0  1  0  0  1 -1           |   -1  1  0  0  1  0  0  1 -1
    0  0 -1  1  0 -1  0  1 -1           |    0  0 -1  1  0 -1  0  1 -1
    0  0  1 -1  0  1  0 -1  1           |    0  0  1 -1  0  1  0 -1  1
   -1  1  0 -1  0  1 -1  0  0           |   -1  1  0 -1  0  1 -1  0  0
    1 -1  0  1  0 -1  1  0  0           |    1 -1  0  1  0 -1  1  0  0
  typat:                                |  typat:
    1  1                                |    1  1
  so_psp  :                             |  so_psp  :
    1                                   |    1

--- !WARNING
src_file: m_hdr.F90
src_line: 4251
message: |
    input kptrlatt= 0 0 0 0 0 0 0 0 0  /= disk file kptrlatt=4 -4 4 -4 4 4 -4 -4 4
...


--- !WARNING
src_file: m_hdr.F90
src_line: 4254
message: |
    input kptopt= -3  /= disk file kptopt= 1
...

  tnons:                                |  tnons:
     0.0000000   0.0000000   0.0000000  |     0.0000000   0.0000000   0.0000000
     0.2500000   0.2500000   0.2500000  |     0.2500000   0.2500000   0.2500000
     0.0000000   0.0000000   0.0000000  |     0.0000000   0.0000000   0.0000000
     0.2500000   0.2500000   0.2500000  |     0.2500000   0.2500000   0.2500000
     0.0000000   0.0000000   0.0000000  |     0.0000000   0.0000000   0.0000000
     0.2500000   0.2500000   0.2500000  |     0.2500000   0.2500000   0.2500000
     0.0000000   0.0000000   0.0000000  |     0.0000000   0.0000000   0.0000000
     0.2500000   0.2500000   0.2500000  |     0.2500000   0.2500000   0.2500000
     0.0000000   0.0000000   0.0000000  |     0.0000000   0.0000000   0.0000000
     0.2500000   0.2500000   0.2500000  |     0.2500000   0.2500000   0.2500000
     0.0000000   0.0000000   0.0000000  |     0.0000000   0.0000000   0.0000000
     0.2500000   0.2500000   0.2500000  |     0.2500000   0.2500000   0.2500000
     0.0000000   0.0000000   0.0000000  |     0.0000000   0.0000000   0.0000000
     0.2500000   0.2500000   0.2500000  |     0.2500000   0.2500000   0.2500000
     0.0000000   0.0000000   0.0000000  |     0.0000000   0.0000000   0.0000000
     0.2500000   0.2500000   0.2500000  |     0.2500000   0.2500000   0.2500000
     0.0000000   0.0000000   0.0000000  |     0.0000000   0.0000000   0.0000000
     0.2500000   0.2500000   0.2500000  |     0.2500000   0.2500000   0.2500000
     0.0000000   0.0000000   0.0000000  |     0.0000000   0.0000000   0.0000000
     0.2500000   0.2500000   0.2500000  |     0.2500000   0.2500000   0.2500000
     0.0000000   0.0000000   0.0000000  |     0.0000000   0.0000000   0.0000000
     0.2500000   0.2500000   0.2500000  |     0.2500000   0.2500000   0.2500000
     0.0000000   0.0000000   0.0000000  |     0.0000000   0.0000000   0.0000000
     0.2500000   0.2500000   0.2500000  |     0.2500000   0.2500000   0.2500000
     0.0000000   0.0000000   0.0000000  |     0.0000000   0.0000000   0.0000000
     0.2500000   0.2500000   0.2500000  |     0.2500000   0.2500000   0.2500000
     0.0000000   0.0000000   0.0000000  |     0.0000000   0.0000000   0.0000000
     0.2500000   0.2500000   0.2500000  |     0.2500000   0.2500000   0.2500000
     0.0000000   0.0000000   0.0000000  |     0.0000000   0.0000000   0.0000000
     0.2500000   0.2500000   0.2500000  |     0.2500000   0.2500000   0.2500000
     0.0000000   0.0000000   0.0000000  |     0.0000000   0.0000000   0.0000000
     0.2500000   0.2500000   0.2500000  |     0.2500000   0.2500000   0.2500000
     0.0000000   0.0000000   0.0000000  |     0.0000000   0.0000000   0.0000000
     0.2500000   0.2500000   0.2500000  |     0.2500000   0.2500000   0.2500000
     0.0000000   0.0000000   0.0000000  |     0.0000000   0.0000000   0.0000000
     0.2500000   0.2500000   0.2500000  |     0.2500000   0.2500000   0.2500000
     0.0000000   0.0000000   0.0000000  |     0.0000000   0.0000000   0.0000000
     0.2500000   0.2500000   0.2500000  |     0.2500000   0.2500000   0.2500000
     0.0000000   0.0000000   0.0000000  |     0.0000000   0.0000000   0.0000000
     0.2500000   0.2500000   0.2500000  |     0.2500000   0.2500000   0.2500000
     0.0000000   0.0000000   0.0000000  |     0.0000000   0.0000000   0.0000000
     0.2500000   0.2500000   0.2500000  |     0.2500000   0.2500000   0.2500000
     0.0000000   0.0000000   0.0000000  |     0.0000000   0.0000000   0.0000000
     0.2500000   0.2500000   0.2500000  |     0.2500000   0.2500000   0.2500000
     0.0000000   0.0000000   0.0000000  |     0.0000000   0.0000000   0.0000000
     0.2500000   0.2500000   0.2500000  |     0.2500000   0.2500000   0.2500000
     0.0000000   0.0000000   0.0000000  |     0.0000000   0.0000000   0.0000000
     0.2500000   0.2500000   0.2500000  |     0.2500000   0.2500000   0.2500000
   znucl:                               |   znucl:
   14.00                                |   14.00
[...]
 kpt#  21, nband=  8, wtk=  1.00000, kpt=  0.0000  0.4167  0.4167 (reduced coord)
  -3.19158   -0.59093    3.11813    3.11813    6.37466    6.98359   14.76234   14.76234
 kpt#  22, nband=  8, wtk=  1.00000, kpt=  0.0000  0.4583  0.4583 (reduced coord)
  -2.59854   -1.29253    3.03427    3.03427    6.40353    6.70380   15.50779   15.50779
 kpt#  23, nband=  8, wtk=  1.00000, kpt=  0.0000  0.5000  0.5000 (reduced coord)
  -1.96393   -1.96393    3.00569    3.00569    6.51173    6.51173   15.95524   15.95524
 kpt#  24, nband=  8, wtk=  1.00000, kpt=  0.0588  0.5294  0.5294 (reduced coord)
  -1.97587   -1.93070    2.80491    3.03120    6.54047    6.81376   15.67399   15.78123
 kpt#  25, nband=  8, wtk=  1.00000, kpt=  0.1176  0.5588  0.5588 (reduced coord)
  -2.02057   -1.83089    2.36174    3.10509    6.62641    7.56932   15.04399   15.34409
 kpt#  26, nband=  8, wtk=  1.00000, kpt=  0.1765  0.5882  0.5882 (reduced coord)
  -2.12074   -1.66607    1.90369    3.22740    6.76983    8.56714   14.31961   14.86294
 kpt#  27, nband=  8, wtk=  1.00000, kpt=  0.2353  0.6176  0.6176 (reduced coord)
  -2.30894   -1.43673    1.56166    3.39280    6.96153    9.69976   13.57269   14.16143
 kpt#  28, nband=  8, wtk=  1.00000, kpt=  0.2941  0.6471  0.6471 (reduced coord)
  -2.59989   -1.14196    1.39788    3.60114    7.20377   10.91685   12.85363   13.38539
 kpt#  29, nband=  8, wtk=  1.00000, kpt=  0.3529  0.6765  0.6765 (reduced coord)
  -2.98071   -0.78291    1.41558    3.84583    7.48822   12.02626   12.17369   12.85839
 kpt#  30, nband=  8, wtk=  1.00000, kpt=  0.4118  0.7059  0.7059 (reduced coord)
  -3.41560   -0.36046    1.58887    4.11946    7.80431   11.54205   11.85896   12.58041
 kpt#  31, nband=  8, wtk=  1.00000, kpt=  0.4706  0.7353  0.7353 (reduced coord)
  -3.86753    0.12426    1.88421    4.41201    8.13497   10.96310   11.30002   12.15337
 kpt#  32, nband=  8, wtk=  1.00000, kpt=  0.5294  0.7647  0.7647 (reduced coord)
  -4.30869    0.67021    2.27361    4.70934    8.45130   10.44003   10.76315   11.81778
 kpt#  33, nband=  8, wtk=  1.00000, kpt=  0.5882  0.7941  0.7941 (reduced coord)
  -4.72125    1.27235    2.73564    4.99805    8.71381    9.97594   10.28238   11.60031
 kpt#  34, nband=  8, wtk=  1.00000, kpt=  0.6471  0.8235  0.8235 (reduced coord)
  -5.09205    1.93149    3.25414    5.26127    8.87852    9.57190    9.85590   11.51241
 kpt#  35, nband=  8, wtk=  1.00000, kpt=  0.7059  0.8529  0.8529 (reduced coord)
  -5.41416    2.64126    3.81022    5.48411    8.93064    9.22877    9.48303   11.48818
 kpt#  36, nband=  8, wtk=  1.00000, kpt=  0.7647  0.8824  0.8824 (reduced coord)
  -5.68284    3.39399    4.38130    5.65789    8.89677    8.94730    9.16044   11.31588
 kpt#  37, nband=  8, wtk=  1.00000, kpt=  0.8235  0.9118  0.9118 (reduced coord)
  -5.89469    4.17400    4.93685    5.78160    8.73026    8.82185    8.88989   10.77952
 kpt#  38, nband=  8, wtk=  1.00000, kpt=  0.8824  0.9412  0.9412 (reduced coord)
  -6.04741    4.94622    5.42716    5.86108    8.57334    8.66561    8.71928   10.02710
 kpt#  39, nband=  8, wtk=  1.00000, kpt=  0.9412  0.9706  0.9706 (reduced coord)
  -6.13938    5.61439    5.78355    5.90436    8.47948    8.50891    8.57389    9.39830
 kpt#  40, nband=  8, wtk=  1.00000, kpt=  1.0000  1.0000  1.0000 (reduced coord)
  -6.17005    5.91814    5.91814    5.91814    8.44836    8.44836    8.44836    9.17755
 Total charge density [el/Bohr^3]
      Maximum=    8.5825E-02  at reduced coord.    0.1000    0.1000    0.7000
 Next maximum=    8.5825E-02  at reduced coord.    0.1500    0.1500    0.5500
      Minimum=    3.5245E-03  at reduced coord.    0.5000    0.5000    0.5000
 Next minimum=    3.5245E-03  at reduced coord.    0.7500    0.7500    0.7500
   Integrated=    8.0000E+00

== END DATASET(S) ==============================================================
================================================================================
  
 -outvars: echo values of variables after computation  --------
            acell      1.0216000000E+01  1.0216000000E+01  1.0216000000E+01 Bohr
              amu      2.80855000E+01
           diemac      1.20000000E+01
             ecut      8.00000000E+00 Hartree
           enunit1          0
           enunit2          1
           etotal1    -8.8725594041E+00
            fcart1    -0.0000000000E+00 -0.0000000000E+00 -0.0000000000E+00
                      -0.0000000000E+00 -0.0000000000E+00 -0.0000000000E+00
-          fftalg         112
           getden1          0
           getden2         -1
             iscf1          7
             iscf2         -2
           istwfk2       3    0    0    0    0    0    0    0    0    0
                         2    0    0    0    0    0    0    0    0    0
                         0    0    8    0    0    0    0    0    0    0
                         0    0    0    0    0    0    0    0    0    0
           jdtset        1    2
              kpt1    -1.25000000E-01 -2.50000000E-01  0.00000000E+00
                      -1.25000000E-01  5.00000000E-01  0.00000000E+00
                      -2.50000000E-01 -3.75000000E-01  0.00000000E+00
                      -1.25000000E-01 -3.75000000E-01  1.25000000E-01
                      -1.25000000E-01  2.50000000E-01  0.00000000E+00
                      -2.50000000E-01  3.75000000E-01  0.00000000E+00
                      -3.75000000E-01  5.00000000E-01  0.00000000E+00
                      -2.50000000E-01  5.00000000E-01  1.25000000E-01
                      -1.25000000E-01  0.00000000E+00  0.00000000E+00
                      -3.75000000E-01  0.00000000E+00  0.00000000E+00
              kpt2     5.00000000E-01  0.00000000E+00  0.00000000E+00
                       4.50000000E-01  0.00000000E+00  0.00000000E+00
                       4.00000000E-01  0.00000000E+00  0.00000000E+00
                       3.50000000E-01  0.00000000E+00  0.00000000E+00
                       3.00000000E-01  0.00000000E+00  0.00000000E+00
                       2.50000000E-01  0.00000000E+00  0.00000000E+00
                       2.00000000E-01  0.00000000E+00  0.00000000E+00
                       1.50000000E-01  0.00000000E+00  0.00000000E+00
                       1.00000000E-01  0.00000000E+00  0.00000000E+00
                       5.00000000E-02  0.00000000E+00  0.00000000E+00
                       0.00000000E+00  0.00000000E+00  0.00000000E+00
                       0.00000000E+00  4.16666667E-02  4.16666667E-02
                       0.00000000E+00  8.33333333E-02  8.33333333E-02
                       0.00000000E+00  1.25000000E-01  1.25000000E-01
                       0.00000000E+00  1.66666667E-01  1.66666667E-01
                       0.00000000E+00  2.08333333E-01  2.08333333E-01
                       0.00000000E+00  2.50000000E-01  2.50000000E-01
                       0.00000000E+00  2.91666667E-01  2.91666667E-01
                       0.00000000E+00  3.33333333E-01  3.33333333E-01
                       0.00000000E+00  3.75000000E-01  3.75000000E-01
                       0.00000000E+00  4.16666667E-01  4.16666667E-01
                       0.00000000E+00  4.58333333E-01  4.58333333E-01
                       0.00000000E+00  5.00000000E-01  5.00000000E-01
                       5.88235294E-02  5.29411765E-01  5.29411765E-01
                       1.17647059E-01  5.58823529E-01  5.58823529E-01
                       1.76470588E-01  5.88235294E-01  5.88235294E-01
                       2.35294118E-01  6.17647059E-01  6.17647059E-01
                       2.94117647E-01  6.47058824E-01  6.47058824E-01
                       3.52941176E-01  6.76470588E-01  6.76470588E-01
                       4.11764706E-01  7.05882353E-01  7.05882353E-01
                       4.70588235E-01  7.35294118E-01  7.35294118E-01
                       5.29411765E-01  7.64705882E-01  7.64705882E-01
                       5.88235294E-01  7.94117647E-01  7.94117647E-01
                       6.47058824E-01  8.23529412E-01  8.23529412E-01
                       7.05882353E-01  8.52941176E-01  8.52941176E-01
                       7.64705882E-01  8.82352941E-01  8.82352941E-01
                       8.23529412E-01  9.11764706E-01  9.11764706E-01
                       8.82352941E-01  9.41176471E-01  9.41176471E-01
                       9.41176471E-01  9.70588235E-01  9.70588235E-01
                       1.00000000E+00  1.00000000E+00  1.00000000E+00
           kptopt1          1
           kptopt2         -3
         kptrlatt        4   -4    4     -4    4    4     -4   -4    4
          kptrlen1     4.08640000E+01
          kptrlen2     3.00000000E+01
P           mkmem1         10
P           mkmem2         40
            natom           2
            nband1          5
            nband2          8
           nbdbuf1          0
           nbdbuf2          2
           ndtset           2
            ngfft          20      20      20
             nkpt1         10
             nkpt2         40
            nstep          10
             nsym          48
           ntypat           1
              occ      2.000000  2.000000  2.000000  2.000000  0.000000
            rprim      0.0000000000E+00  5.0000000000E-01  5.0000000000E-01
                       5.0000000000E-01  0.0000000000E+00  5.0000000000E-01
                       5.0000000000E-01  5.0000000000E-01  0.0000000000E+00
           shiftk      5.00000000E-01  5.00000000E-01  5.00000000E-01
          spgroup         227
           strten1     2.9301643500E-05  2.9301643500E-05  2.9301643500E-05
                       0.0000000000E+00  0.0000000000E+00  0.0000000000E+00
           symrel      1  0  0   0  1  0   0  0  1      -1  0  0   0 -1  0   0  0 -1
                       0 -1  1   0 -1  0   1 -1  0       0  1 -1   0  1  0  -1  1  0
                      -1  0  0  -1  0  1  -1  1  0       1  0  0   1  0 -1   1 -1  0
                       0  1 -1   1  0 -1   0  0 -1       0 -1  1  -1  0  1   0  0  1
                      -1  0  0  -1  1  0  -1  0  1       1  0  0   1 -1  0   1  0 -1
                       0 -1  1   1 -1  0   0 -1  0       0  1 -1  -1  1  0   0  1  0
                       1  0  0   0  0  1   0  1  0      -1  0  0   0  0 -1   0 -1  0
                       0  1 -1   0  0 -1   1  0 -1       0 -1  1   0  0  1  -1  0  1
                      -1  0  1  -1  1  0  -1  0  0       1  0 -1   1 -1  0   1  0  0
                       0 -1  0   1 -1  0   0 -1  1       0  1  0  -1  1  0   0  1 -1
                       1  0 -1   0  0 -1   0  1 -1      -1  0  1   0  0  1   0 -1  1
                       0  1  0   0  0  1   1  0  0       0 -1  0   0  0 -1  -1  0  0
                       1  0 -1   0  1 -1   0  0 -1      -1  0  1   0 -1  1   0  0  1
                       0 -1  0   0 -1  1   1 -1  0       0  1  0   0  1 -1  -1  1  0
                      -1  0  1  -1  0  0  -1  1  0       1  0 -1   1  0  0   1 -1  0
                       0  1  0   1  0  0   0  0  1       0 -1  0  -1  0  0   0  0 -1
                       0  0 -1   0  1 -1   1  0 -1       0  0  1   0 -1  1  -1  0  1
                       1 -1  0   0 -1  1   0 -1  0      -1  1  0   0  1 -1   0  1  0
                       0  0  1   1  0  0   0  1  0       0  0 -1  -1  0  0   0 -1  0
                      -1  1  0  -1  0  0  -1  0  1       1 -1  0   1  0  0   1  0 -1
                       0  0  1   0  1  0   1  0  0       0  0 -1   0 -1  0  -1  0  0
                       1 -1  0   0 -1  0   0 -1  1      -1  1  0   0  1  0   0  1 -1
                       0  0 -1   1  0 -1   0  1 -1       0  0  1  -1  0  1   0 -1  1
                      -1  1  0  -1  0  1  -1  0  0       1 -1  0   1  0 -1   1  0  0
            tnons      0.0000000  0.0000000  0.0000000     0.2500000  0.2500000  0.2500000
                       0.0000000  0.0000000  0.0000000     0.2500000  0.2500000  0.2500000
                       0.0000000  0.0000000  0.0000000     0.2500000  0.2500000  0.2500000
                       0.0000000  0.0000000  0.0000000     0.2500000  0.2500000  0.2500000
                       0.0000000  0.0000000  0.0000000     0.2500000  0.2500000  0.2500000
                       0.0000000  0.0000000  0.0000000     0.2500000  0.2500000  0.2500000
                       0.0000000  0.0000000  0.0000000     0.2500000  0.2500000  0.2500000
                       0.0000000  0.0000000  0.0000000     0.2500000  0.2500000  0.2500000
                       0.0000000  0.0000000  0.0000000     0.2500000  0.2500000  0.2500000
                       0.0000000  0.0000000  0.0000000     0.2500000  0.2500000  0.2500000
                       0.0000000  0.0000000  0.0000000     0.2500000  0.2500000  0.2500000
                       0.0000000  0.0000000  0.0000000     0.2500000  0.2500000  0.2500000
                       0.0000000  0.0000000  0.0000000     0.2500000  0.2500000  0.2500000
                       0.0000000  0.0000000  0.0000000     0.2500000  0.2500000  0.2500000
                       0.0000000  0.0000000  0.0000000     0.2500000  0.2500000  0.2500000
                       0.0000000  0.0000000  0.0000000     0.2500000  0.2500000  0.2500000
                       0.0000000  0.0000000  0.0000000     0.2500000  0.2500000  0.2500000
                       0.0000000  0.0000000  0.0000000     0.2500000  0.2500000  0.2500000
                       0.0000000  0.0000000  0.0000000     0.2500000  0.2500000  0.2500000
                       0.0000000  0.0000000  0.0000000     0.2500000  0.2500000  0.2500000
                       0.0000000  0.0000000  0.0000000     0.2500000  0.2500000  0.2500000
                       0.0000000  0.0000000  0.0000000     0.2500000  0.2500000  0.2500000
                       0.0000000  0.0000000  0.0000000     0.2500000  0.2500000  0.2500000
                       0.0000000  0.0000000  0.0000000     0.2500000  0.2500000  0.2500000
           toldfe1     1.00000000E-06 Hartree
           toldfe2     0.00000000E+00 Hartree
           tolwfr1     0.00000000E+00
           tolwfr2     1.00000000E-12
            typat      1  1
              wtk1       0.09375    0.09375    0.09375    0.18750    0.09375    0.09375
                         0.09375    0.18750    0.03125    0.03125
              wtk2       1.00000    1.00000    1.00000    1.00000    1.00000    1.00000
                         1.00000    1.00000    1.00000    1.00000    1.00000    1.00000
                         1.00000    1.00000    1.00000    1.00000    1.00000    1.00000
                         1.00000    1.00000    1.00000    1.00000    1.00000    1.00000
                         1.00000    1.00000    1.00000    1.00000    1.00000    1.00000
                         1.00000    1.00000    1.00000    1.00000    1.00000    1.00000
                         1.00000    1.00000    1.00000    1.00000
           xangst      0.0000000000E+00  0.0000000000E+00  0.0000000000E+00
                       1.3515185907E+00  1.3515185907E+00  1.3515185907E+00
            xcart      0.0000000000E+00  0.0000000000E+00  0.0000000000E+00
                       2.5540000000E+00  2.5540000000E+00  2.5540000000E+00
             xred      0.0000000000E+00  0.0000000000E+00  0.0000000000E+00
                       2.5000000000E-01  2.5000000000E-01  2.5000000000E-01
            znucl       14.00000

================================================================================
  

================================================================================

 Suggested references for the acknowledgment of ABINIT usage.

 The users of ABINIT have little formal obligations with respect to the ABINIT group
 (those specified in the GNU General Public License, http://www.gnu.org/copyleft/gpl.txt).
 However, it is common practice in the scientific literature,
 to acknowledge the efforts of people that have made the research possible.
 In this spirit, please find below suggested citations of work written by ABINIT developers,
 corresponding to implementations inside of ABINIT that you have used in the present run.
 Note also that it will be of great value to readers of publications presenting these results,
 to read papers enabling them to understand the theoretical formalism and details
 of the ABINIT implementation.
 For information on why they are suggested, see also https://www.abinit.org/about/?text=acknowledgments.
-
- [1] Recent developments in the ABINIT software package.
- Computer Phys. Comm. 205, 106 (2016).
- X.Gonze, F.Jollet, F.Abreu Araujo, D.Adams, B.Amadon, T.Applencourt,
- C.Audouze, J.-M.Beuken, J.Bieder, A.Bokhanchuk, E.Bousquet, F.Bruneval
- D.Caliste, M.Cote, F.Dahm, F.Da Pieve, M.Delaveau, M.Di Gennaro,
- B.Dorado, C.Espejo, G.Geneste, L.Genovese, A.Gerossier, M.Giantomassi,
- Y.Gillet, D.R.Hamann, L.He, G.Jomard, J.Laflamme Janssen, S.Le Roux,
- A.Levitt, A.Lherbier, F.Liu, I.Lukacevic, A.Martin, C.Martins,
- M.J.T.Oliveira, S.Ponce, Y.Pouillon, T.Rangel, G.-M.Rignanese,
- A.H.Romero, B.Rousseau, O.Rubel, A.A.Shukri, M.Stankovski, M.Torrent,
- M.J.Van Setten, B.Van Troeye, M.J.Verstraete, D.Waroquier, J.Wiktor,
- B.Xue, A.Zhou, J.W.Zwanziger.
- Comment : the fourth generic paper describing the ABINIT project.
- Note that a version of this paper, that is not formatted for Computer Phys. Comm. 
- is available at https://www.abinit.org/about/ABINIT16.pdf .
- The licence allows the authors to put it on the Web.
-
- [2] ABINIT : First-principles approach of materials and nanosystem properties.
- Computer Phys. Comm. 180, 2582-2615 (2009).
- X. Gonze, B. Amadon, P.-M. Anglade, J.-M. Beuken, F. Bottin, P. Boulanger, F. Bruneval,
- D. Caliste, R. Caracas, M. Cote, T. Deutsch, L. Genovese, Ph. Ghosez, M. Giantomassi
- S. Goedecker, D.R. Hamann, P. Hermet, F. Jollet, G. Jomard, S. Leroux, M. Mancini, S. Mazevet,
- M.J.T. Oliveira, G. Onida, Y. Pouillon, T. Rangel, G.-M. Rignanese, D. Sangalli, R. Shaltaf,
- M. Torrent, M.J. Verstraete, G. Zerah, J.W. Zwanziger
- Comment : the third generic paper describing the ABINIT project.
- Note that a version of this paper, that is not formatted for Computer Phys. Comm. 
- is available at https://www.abinit.org/about/ABINIT_CPC_v10.pdf .
- The licence allows the authors to put it on the Web.
-
- [3] A brief introduction to the ABINIT software package.
- Z. Kristallogr. 220, 558-562 (2005).
- X. Gonze, G.-M. Rignanese, M. Verstraete, J.-M. Beuken, Y. Pouillon, R. Caracas, F. Jollet,
- M. Torrent, G. Zerah, M. Mikami, Ph. Ghosez, M. Veithen, J.-Y. Raty, V. Olevano, F. Bruneval,
- L. Reining, R. Godby, G. Onida, D.R. Hamann, and D.C. Allan.
- Comment : the second generic paper describing the ABINIT project. Note that this paper
- should be cited especially if you are using the GW part of ABINIT, as several authors
- of this part are not in the list of authors of the first or third paper.
- The .pdf of the latter paper is available at https://www.abinit.org/about/zfk_0505-06_558-562.pdf.
- Note that it should not redistributed (Copyright by Oldenburg Wissenshaftverlag,
- the licence allows the authors to put it on the Web).
-
- And optionally:
-
- [4] First-principles computation of material properties : the ABINIT software project. 
- X. Gonze, J.-M. Beuken, R. Caracas, F. Detraux, M. Fuchs, G.-M. Rignanese, L. Sindic,
- M. Verstraete, G. Zerah, F. Jollet, M. Torrent, A. Roy, M. Mikami, Ph. Ghosez, J.-Y. Raty, D.C. Allan.
- Computational Materials Science 25, 478-492 (2002). http://dx.doi.org/10.1016/S0927-0256(02)00325-7
- Comment : the original paper describing the ABINIT project.
  Asked to delete not existent file: tbase3_5_STATUS

 Calculation completed.
.Delivered   2 WARNINGs and   0 COMMENTs to log file.

--- !FinalSummary
program: abinit
version: 8.6.3
start_datetime: Sat Apr 14 14:58:03 2018
end_datetime: Sat Apr 14 14:58:06 2018
overall_cpu_time:           2.4
overall_wall_time:           3.4
exit_requested_by_user: no 
timelimit: 0
pseudos: 
    Si  : 3916b143991b1cfa1542b130be320e5e
usepaw: 0
mpi_procs: 1
omp_threads: 1
num_warnings: 2
num_comments: 0
...
