
.Version 8.6.3 of ABINIT 
.(sequential version, prepared for a x86_64_linux_gnu5.4 computer) 

.Copyright (C) 1998-2017 ABINIT group . 
 ABINIT comes with ABSOLUTELY NO WARRANTY.
 It is free software, and you are welcome to redistribute it
 under certain conditions (GNU General Public License,
 see ~abinit/COPYING or http://www.gnu.org/copyleft/gpl.txt).

 ABINIT is a project of the Universite Catholique de Louvain,
 Corning Inc. and other collaborators, see ~abinit/doc/developers/contributors.txt .
 Please read ~abinit/doc/users/acknowledgments.html for suggested
 acknowledgments of the ABINIT effort.
 For more information, see https://www.abinit.org .

.Starting date : Sun 22 Apr 2018.
- ( at 06h36 )
  
- input  file    -> sim6geom.in
- output file    -> sim6geom.out
- root for input  files -> sim6geom_i
- root for output files -> sim6geom_o


 Symmetries : space group P1 (#  1); Bravais aP (primitive triclinic)
================================================================================
 Values of the parameters that define the memory need of the present run
     intxc =       0    ionmov =       5      iscf =       7    lmnmax =       6
     lnmax =       6     mgfft =     320  mpssoang =       3    mqgrid =   15343
     natom =      20  nloc_mem =       1    nspden =       1   nspinor =       1
    nsppol =       1      nsym =       1    n1xccc =    2501    ntypat =       3
    occopt =       1   xclevel =       2
-    mband =         123        mffmem =           1         mkmem =           2
       mpw =       89056          nfft =     1658880          nkpt =           2
================================================================================
P This job should need less than                     837.056 Mbytes of memory.
  Rough estimation (10% accuracy) of disk space for files :
_ WF disk file :    334.288 Mbytes ; DEN or POT disk file :     12.658 Mbytes.
================================================================================

--------------------------------------------------------------------------------
------------- Echo of variables that govern the present computation ------------
--------------------------------------------------------------------------------
-
- outvars: echo of selected default values                                      
-   iomode0 =  0 , fftalg0 =112 , wfoptalg0 =  0
-
- outvars: echo of global parameters not present in the input file              
-  max_nthreads =    0
-
 -outvars: echo values of preprocessed input variables --------
            acell      8.6808000000E+00  8.6808000000E+00  4.0000000000E+01 Bohr
              amu      4.78800000E+01  1.59994000E+01  1.06420000E+02
           diemac      1.20000000E+01
          dilatmx      1.10000000E+00
             ecut      6.00000000E+01 Hartree
           ecutsm      5.00000000E-01 Hartree
-          fftalg         112
           ionmov           5
              ixc          11
              kpt      1.25000000E-01  5.00000000E-01  5.00000000E-01
                       3.75000000E-01  5.00000000E-01  5.00000000E-01
           kptopt           2
         kptrlatt        4    0    0      0    1    0      0    0    1
          kptrlen      8.68080000E+00
P           mkmem           2
            natom          20
            nband         123
            ngfft          72      72     320
             nkpt           2
            nstep          10
             nsym           1
            ntime          10
           ntypat           3
              occ      2.000000  2.000000  2.000000  2.000000  2.000000  2.000000
                       2.000000  2.000000  2.000000  2.000000  2.000000  2.000000
                       2.000000  2.000000  2.000000  2.000000  2.000000  2.000000
                       2.000000  2.000000  2.000000  2.000000  2.000000  2.000000
                       2.000000  2.000000  2.000000  2.000000  2.000000  2.000000
                       2.000000  2.000000  2.000000  2.000000  2.000000  2.000000
                       2.000000  2.000000  2.000000  2.000000  2.000000  2.000000
                       2.000000  2.000000  2.000000  2.000000  2.000000  2.000000
                       2.000000  2.000000  2.000000  2.000000  2.000000  2.000000
                       2.000000  2.000000  2.000000  2.000000  2.000000  2.000000
                       2.000000  2.000000  2.000000  2.000000  2.000000  2.000000
                       2.000000  2.000000  2.000000  2.000000  2.000000  2.000000
                       2.000000  2.000000  2.000000  2.000000  2.000000  2.000000
                       2.000000  2.000000  2.000000  2.000000  2.000000  2.000000
                       2.000000  2.000000  2.000000  2.000000  2.000000  2.000000
                       2.000000  2.000000  2.000000  2.000000  2.000000  2.000000
                       2.000000  2.000000  2.000000  2.000000  2.000000  2.000000
                       2.000000  2.000000  2.000000  2.000000  2.000000  2.000000
                       2.000000  2.000000  2.000000  2.000000  2.000000  2.000000
                       2.000000  2.000000  2.000000  2.000000  2.000000  2.000000
                       0.000000  0.000000  0.000000
           shiftk      5.00000000E-01  5.00000000E-01  5.00000000E-01
          spgroup           1
           toldfe      1.00000000E-02 Hartree
            typat      1  1  1  1  2  2  2  2  2  2  2  2  3  3  3  3  3  3  3  3
              wtk        0.50000    0.50000
           xangst      2.1614021117E+00 -1.7698251327E+00 -2.6340984037E+01
                       2.4335207278E+00 -3.5343132547E+00  1.9960941804E+01
                       2.0891033463E-01  5.1396985425E+00 -6.0620889222E+00
                       3.6927948588E-01  4.6821451469E+00  4.3706076133E+01
                       3.9111898350E+01 -2.7982057359E+00 -8.4232183104E+00
                       3.9256238331E+01 -2.8789634835E+00  2.0671067636E+01
                       2.9169702027E+00 -2.0727049915E+00  3.9940759549E+00
                       4.0565963050E+00 -1.7925804281E+00  3.2563971453E+01
                       9.6697059735E-01  3.4196880616E+00  6.7776467842E+00
                      -8.3088909303E-02  1.8360253928E+00  3.1578836202E+01
                       4.4670147626E+00  4.3576145758E+00 -1.1815334458E+01
                       4.4477732456E+00  4.4491620587E+00  1.7275852647E+01
                      -5.6426585363E+00 -3.5081453454E-01 -6.1260576329E+01
                       2.2883272374E+00 -5.2468713943E-01  3.7123092644E+01
                       6.3600133585E+00  2.8376281855E+00  1.5093731618E+01
                       2.0979346200E+00  1.8104837742E-01  2.0049877501E+00
                       6.1525821441E+00 -2.0124873270E+00  1.4145564791E+01
                       1.9568919715E+00 -8.2682430905E-02  2.0186190826E+00
                      -3.7114230055E+00 -5.8343803938E-02  4.8252822945E+01
                      -4.1400974975E-01 -1.5119525304E-01 -7.3843339505E+00
            xcart      4.0844580542E+00 -3.3444848039E+00 -4.9777245900E+01
                       4.5986877142E+00 -6.6788841193E+00  3.7720713365E+01
                       3.9478331877E-01  9.7126226509E+00 -1.1455687856E+01
                       6.9783709481E-01  8.8479720421E+00  8.2592514235E+01
                       7.3910776419E+01 -5.2878425044E+00 -1.5917575764E+01
                       7.4183539453E+01 -5.4404525303E+00  3.9062656707E+01
                       5.5122748208E+00 -3.9168447882E+00  7.5477097087E+00
                       7.6658560482E+00 -3.3874860802E+00  6.1536987845E+01
                       1.8273096076E+00  6.4622738963E+00  1.2807896248E+01
                      -1.5701528326E-01  3.4695851655E+00  5.9675352018E+01
                       8.4414345328E+00  8.2346981409E+00 -2.2327746293E+01
                       8.4050733353E+00  8.4076978118E+00  3.2646630214E+01
                      -1.0663079295E+01 -6.6294339371E-01 -1.1576571200E+02
                       4.3243117811E+00 -9.9151499898E-01  7.0152478303E+01
                       1.2018683449E+01  5.3623401376E+00  2.8523019081E+01
                       3.9645218764E+00  3.4213185012E-01  3.7888777476E+00
                       1.1626695262E+01 -3.8030498940E+00  2.6731243450E+01
                       3.6979898978E+00 -1.5624715041E-01  3.8146372327E+00
                      -7.0135730436E+00 -1.1025381099E-01  9.1184620504E+01
                      -7.8236504336E-01 -2.8571762084E-01 -1.3954368840E+01
             xred      4.7051631810E-01 -3.8527380010E-01 -1.2444311475E+00
                       5.2975390681E-01 -7.6938578464E-01  9.4301783412E-01
                       4.5477757669E-02  1.1188626222E+00 -2.8639219640E-01
                       8.0388569580E-02  1.0192576770E+00  2.0648128559E+00
                       8.5142816812E+00 -6.0914230306E-01 -3.9793939411E-01
                       8.5457030980E+00 -6.2672248299E-01  9.7656641767E-01
                       6.3499617787E-01 -4.5120781359E-01  1.8869274272E-01
                       8.8308174917E-01 -3.9022740764E-01  1.5384246961E+00
                       2.1050013911E-01  7.4443298963E-01  3.2019740619E-01
                      -1.8087651284E-02  3.9968495594E-01  1.4918838004E+00
                       9.7242587467E-01  9.4861051295E-01 -5.5819365733E-01
                       9.6823718267E-01  9.6853951385E-01  8.1616575536E-01
                      -1.2283521444E+00 -7.6368928406E-02 -2.8941428001E+00
                       4.9814668937E-01 -1.1421931147E-01  1.7538119576E+00
                       1.3845133454E+00  6.1772418874E-01  7.1307547703E-01
                       4.5670005949E-01  3.9412479279E-02  9.4721943689E-02
                       1.3393575779E+00 -4.3809901092E-01  6.6828108626E-01
                       4.2599644017E-01 -1.7999164871E-02  9.5365930817E-02
                      -8.0794086301E-01 -1.2700881370E-02  2.2796155126E+00
                      -9.0125915050E-02 -3.2913743069E-02 -3.4885922100E-01
            znucl       22.00000    8.00000   46.00000

================================================================================

 chkinp: Checking input parameters for consistency.

================================================================================
== DATASET  1 ==================================================================
-   nproc =    1

 Exchange-correlation functional for the present dataset will be:
  GGA: Perdew-Burke-Ernzerhof functional - ixc=11
 Citation for XC functional:
  J.P.Perdew, K.Burke, M.Ernzerhof, PRL 77, 3865 (1996)

 Real(R)+Recip(G) space primitive vectors, cartesian coordinates (Bohr,Bohr^-1):
 R(1)=  8.6808000  0.0000000  0.0000000  G(1)=  0.1151968  0.0000000  0.0000000
 R(2)=  0.0000000  8.6808000  0.0000000  G(2)=  0.0000000  0.1151968  0.0000000
 R(3)=  0.0000000  0.0000000 40.0000000  G(3)=  0.0000000  0.0000000  0.0250000
 Unit cell volume ucvol=  3.0142515E+03 bohr^3
 Angles (23,13,12)=  9.00000000E+01  9.00000000E+01  9.00000000E+01 degrees

 getcut: wavevector=  0.0000  0.0000  0.0000  ngfft=  72  72 320
         ecut(hartree)=     72.600   => boxcut(ratio)=   2.08572

--- Pseudopotential description ------------------------------------------------
- pspini: atom type   1  psp file is Ti.psp8
- pspatm: opening atomic psp file    Ti.psp8
- Ti    ONCVPSP-3.2.3.1  r_core=   1.35825   1.31050   1.66360
- 22.00000  12.00000    170504                znucl, zion, pspdat
    8   11    2    4       600   0.00000      pspcod,pspxc,lmax,lloc,mmax,r2well
    5.99000000000000    2.50000000000000    0.00000000000000   rchrg,fchrg,qchrg
     nproj     2     2     2
     extension_switch     1
  pspatm : epsatm=   14.68144390
         --- l  ekb(1:nproj) -->
             0   11.362348    1.263639
             1    1.975402   -0.084666
             2   -5.186090   -1.477451
 pspatm: atomic psp has been read  and splines computed

- pspini: atom type   2  psp file is O.psp8
- pspatm: opening atomic psp file    O.psp8
- O     ONCVPSP-3.2.3.1  r_core=   1.35509   1.45563   1.26150
-  8.00000   6.00000    170504                znucl, zion, pspdat
    8   11    2    4       600   0.00000      pspcod,pspxc,lmax,lloc,mmax,r2well
    5.99000000000000    4.00000000000000    0.00000000000000   rchrg,fchrg,qchrg
     nproj     2     2     1
     extension_switch     1
  pspatm : epsatm=    6.19546011
