
.Version 8.6.3 of ABINIT 
.(sequential version, prepared for a x86_64_linux_gnu5.4 computer) 

.Copyright (C) 1998-2017 ABINIT group . 
 ABINIT comes with ABSOLUTELY NO WARRANTY.
 It is free software, and you are welcome to redistribute it
 under certain conditions (GNU General Public License,
 see ~abinit/COPYING or http://www.gnu.org/copyleft/gpl.txt).

 ABINIT is a project of the Universite Catholique de Louvain,
 Corning Inc. and other collaborators, see ~abinit/doc/developers/contributors.txt .
 Please read ~abinit/doc/users/acknowledgments.html for suggested
 acknowledgments of the ABINIT effort.
 For more information, see https://www.abinit.org .

.Starting date : Sun 22 Apr 2018.
- ( at 06h37 )
  
- input  file    -> sim6geom.in
- output file    -> sim6geom.out
- root for input  files -> sim6geom_i
- root for output files -> sim6geom_o


 Symmetries : space group P1 (#  1); Bravais aP (primitive triclinic)
================================================================================
 Values of the parameters that define the memory need of the present run
     intxc =       0    ionmov =       0      iscf =       7    lmnmax =       6
     lnmax =       6     mgfft =     288  mpssoang =       3    mqgrid =   13948
     natom =      20  nloc_mem =       1    nspden =       1   nspinor =       1
    nsppol =       1      nsym =       1    n1xccc =    2501    ntypat =       3
    occopt =       1   xclevel =       2
-    mband =         123        mffmem =           1         mkmem =           2
       mpw =       67060          nfft =     1179648          nkpt =           2
================================================================================
P This job should need less than                     610.725 Mbytes of memory.
  Rough estimation (10% accuracy) of disk space for files :
_ WF disk file :    251.723 Mbytes ; DEN or POT disk file :      9.002 Mbytes.
================================================================================

--------------------------------------------------------------------------------
------------- Echo of variables that govern the present computation ------------
--------------------------------------------------------------------------------
-
- outvars: echo of selected default values                                      
-   iomode0 =  0 , fftalg0 =112 , wfoptalg0 =  0
-
- outvars: echo of global parameters not present in the input file              
-  max_nthreads =    0
-
 -outvars: echo values of preprocessed input variables --------
            acell      8.6808000000E+00  8.6808000000E+00  4.0000000000E+01 Bohr
              amu      4.78800000E+01  1.59994000E+01  1.06420000E+02
           diemac      1.20000000E+01
             ecut      6.00000000E+01 Hartree
-          fftalg         112
              ixc          11
              kpt      1.25000000E-01  5.00000000E-01  5.00000000E-01
                       3.75000000E-01  5.00000000E-01  5.00000000E-01
           kptopt           2
         kptrlatt        4    0    0      0    1    0      0    0    1
          kptrlen      8.68080000E+00
P           mkmem           2
            natom          20
            nband         123
            ngfft          64      64     288
             nkpt           2
            nstep          10
             nsym           1
           ntypat           3
              occ      2.000000  2.000000  2.000000  2.000000  2.000000  2.000000
                       2.000000  2.000000  2.000000  2.000000  2.000000  2.000000
                       2.000000  2.000000  2.000000  2.000000  2.000000  2.000000
                       2.000000  2.000000  2.000000  2.000000  2.000000  2.000000
                       2.000000  2.000000  2.000000  2.000000  2.000000  2.000000
                       2.000000  2.000000  2.000000  2.000000  2.000000  2.000000
                       2.000000  2.000000  2.000000  2.000000  2.000000  2.000000
                       2.000000  2.000000  2.000000  2.000000  2.000000  2.000000
                       2.000000  2.000000  2.000000  2.000000  2.000000  2.000000
                       2.000000  2.000000  2.000000  2.000000  2.000000  2.000000
                       2.000000  2.000000  2.000000  2.000000  2.000000  2.000000
                       2.000000  2.000000  2.000000  2.000000  2.000000  2.000000
                       2.000000  2.000000  2.000000  2.000000  2.000000  2.000000
                       2.000000  2.000000  2.000000  2.000000  2.000000  2.000000
                       2.000000  2.000000  2.000000  2.000000  2.000000  2.000000
                       2.000000  2.000000  2.000000  2.000000  2.000000  2.000000
                       2.000000  2.000000  2.000000  2.000000  2.000000  2.000000
                       2.000000  2.000000  2.000000  2.000000  2.000000  2.000000
                       2.000000  2.000000  2.000000  2.000000  2.000000  2.000000
                       2.000000  2.000000  2.000000  2.000000  2.000000  2.000000
                       0.000000  0.000000  0.000000
           shiftk      5.00000000E-01  5.00000000E-01  5.00000000E-01
          spgroup           1
           toldfe      1.00000000E-02 Hartree
            typat      1  1  1  1  2  2  2  2  2  2  2  2  3  3  3  3  3  3  3  3
              wtk        0.50000    0.50000
           xangst      2.1614021117E+00 -1.7698251327E+00 -2.6340984037E+01
                       2.4335207278E+00 -3.5343132547E+00  1.9960941804E+01
                       2.0891033463E-01  5.1396985425E+00 -6.0620889222E+00
                       3.6927948588E-01  4.6821451469E+00  4.3706076133E+01
                       3.9111898350E+01 -2.7982057359E+00 -8.4232183104E+00
                       3.9256238331E+01 -2.8789634835E+00  2.0671067636E+01
                       2.9169702027E+00 -2.0727049915E+00  3.9940759549E+00
                       4.0565963050E+00 -1.7925804281E+00  3.2563971453E+01
                       9.6697059735E-01  3.4196880616E+00  6.7776467842E+00
                      -8.3088909303E-02  1.8360253928E+00  3.1578836202E+01
                       4.4670147626E+00  4.3576145758E+00 -1.1815334458E+01
                       4.4477732456E+00  4.4491620587E+00  1.7275852647E+01
                      -5.6426585363E+00 -3.5081453454E-01 -6.1260576329E+01
                       2.2883272374E+00 -5.2468713943E-01  3.7123092644E+01
                       6.3600133585E+00  2.8376281855E+00  1.5093731618E+01
                       2.0979346200E+00  1.8104837742E-01  2.0049877501E+00
                       6.1525821441E+00 -2.0124873270E+00  1.4145564791E+01
                       1.9568919715E+00 -8.2682430905E-02  2.0186190826E+00
                      -3.7114230055E+00 -5.8343803938E-02  4.8252822945E+01
                      -4.1400974975E-01 -1.5119525304E-01 -7.3843339505E+00
            xcart      4.0844580542E+00 -3.3444848039E+00 -4.9777245900E+01
                       4.5986877142E+00 -6.6788841193E+00  3.7720713365E+01
                       3.9478331877E-01  9.7126226509E+00 -1.1455687856E+01
                       6.9783709481E-01  8.8479720421E+00  8.2592514235E+01
                       7.3910776419E+01 -5.2878425044E+00 -1.5917575764E+01
                       7.4183539453E+01 -5.4404525303E+00  3.9062656707E+01
                       5.5122748208E+00 -3.9168447882E+00  7.5477097087E+00
                       7.6658560482E+00 -3.3874860802E+00  6.1536987845E+01
                       1.8273096076E+00  6.4622738963E+00  1.2807896248E+01
                      -1.5701528326E-01  3.4695851655E+00  5.9675352018E+01
                       8.4414345328E+00  8.2346981409E+00 -2.2327746293E+01
                       8.4050733353E+00  8.4076978118E+00  3.2646630214E+01
                      -1.0663079295E+01 -6.6294339371E-01 -1.1576571200E+02
                       4.3243117811E+00 -9.9151499898E-01  7.0152478303E+01
                       1.2018683449E+01  5.3623401376E+00  2.8523019081E+01
                       3.9645218764E+00  3.4213185012E-01  3.7888777476E+00
                       1.1626695262E+01 -3.8030498940E+00  2.6731243450E+01
                       3.6979898978E+00 -1.5624715041E-01  3.8146372327E+00
                      -7.0135730436E+00 -1.1025381099E-01  9.1184620504E+01
                      -7.8236504336E-01 -2.8571762084E-01 -1.3954368840E+01
             xred      4.7051631810E-01 -3.8527380010E-01 -1.2444311475E+00
                       5.2975390681E-01 -7.6938578464E-01  9.4301783412E-01
                       4.5477757669E-02  1.1188626222E+00 -2.8639219640E-01
                       8.0388569580E-02  1.0192576770E+00  2.0648128559E+00
                       8.5142816812E+00 -6.0914230306E-01 -3.9793939411E-01
                       8.5457030980E+00 -6.2672248299E-01  9.7656641767E-01
                       6.3499617787E-01 -4.5120781359E-01  1.8869274272E-01
                       8.8308174917E-01 -3.9022740764E-01  1.5384246961E+00
                       2.1050013911E-01  7.4443298963E-01  3.2019740619E-01
                      -1.8087651284E-02  3.9968495594E-01  1.4918838004E+00
                       9.7242587467E-01  9.4861051295E-01 -5.5819365733E-01
                       9.6823718267E-01  9.6853951385E-01  8.1616575536E-01
                      -1.2283521444E+00 -7.6368928406E-02 -2.8941428001E+00
                       4.9814668937E-01 -1.1421931147E-01  1.7538119576E+00
                       1.3845133454E+00  6.1772418874E-01  7.1307547703E-01
                       4.5670005949E-01  3.9412479279E-02  9.4721943689E-02
                       1.3393575779E+00 -4.3809901092E-01  6.6828108626E-01
                       4.2599644017E-01 -1.7999164871E-02  9.5365930817E-02
                      -8.0794086301E-01 -1.2700881370E-02  2.2796155126E+00
                      -9.0125915050E-02 -3.2913743069E-02 -3.4885922100E-01
            znucl       22.00000    8.00000   46.00000

================================================================================

 chkinp: Checking input parameters for consistency.

================================================================================
== DATASET  1 ==================================================================
-   nproc =    1

 Exchange-correlation functional for the present dataset will be:
  GGA: Perdew-Burke-Ernzerhof functional - ixc=11
 Citation for XC functional:
  J.P.Perdew, K.Burke, M.Ernzerhof, PRL 77, 3865 (1996)

 Real(R)+Recip(G) space primitive vectors, cartesian coordinates (Bohr,Bohr^-1):
 R(1)=  8.6808000  0.0000000  0.0000000  G(1)=  0.1151968  0.0000000  0.0000000
 R(2)=  0.0000000  8.6808000  0.0000000  G(2)=  0.0000000  0.1151968  0.0000000
 R(3)=  0.0000000  0.0000000 40.0000000  G(3)=  0.0000000  0.0000000  0.0250000
 Unit cell volume ucvol=  3.0142515E+03 bohr^3
 Angles (23,13,12)=  9.00000000E+01  9.00000000E+01  9.00000000E+01 degrees

 getcut: wavevector=  0.0000  0.0000  0.0000  ngfft=  64  64 288
         ecut(hartree)=     60.000   => boxcut(ratio)=   2.06487

--- Pseudopotential description ------------------------------------------------
- pspini: atom type   1  psp file is Ti.psp8
- pspatm: opening atomic psp file    Ti.psp8
- Ti    ONCVPSP-3.2.3.1  r_core=   1.35825   1.31050   1.66360
- 22.00000  12.00000    170504                znucl, zion, pspdat
    8   11    2    4       600   0.00000      pspcod,pspxc,lmax,lloc,mmax,r2well
    5.99000000000000    2.50000000000000    0.00000000000000   rchrg,fchrg,qchrg
     nproj     2     2     2
     extension_switch     1
  pspatm : epsatm=   14.68144390
         --- l  ekb(1:nproj) -->
             0   11.362348    1.263639
             1    1.975402   -0.084666
             2   -5.186090   -1.477451
 pspatm: atomic psp has been read  and splines computed

- pspini: atom type   2  psp file is O.psp8
- pspatm: opening atomic psp file    O.psp8
- O     ONCVPSP-3.2.3.1  r_core=   1.35509   1.45563   1.26150
-  8.00000   6.00000    170504                znucl, zion, pspdat
    8   11    2    4       600   0.00000      pspcod,pspxc,lmax,lloc,mmax,r2well
    5.99000000000000    4.00000000000000    0.00000000000000   rchrg,fchrg,qchrg
     nproj     2     2     1
     extension_switch     1
  pspatm : epsatm=    6.19546011
         --- l  ekb(1:nproj) -->
             0    6.056735    0.824024
             1   -4.717130   -1.149271
             2   -1.331955
 pspatm: atomic psp has been read  and splines computed

- pspini: atom type   3  psp file is Pd.psp8
- pspatm: opening atomic psp file    Pd.psp8
- Pd    ONCVPSP-3.2.3.1  r_core=   1.41052   1.46191   1.55175
- 46.00000  18.00000    170510                znucl, zion, pspdat
    8   11    2    4       600   0.00000      pspcod,pspxc,lmax,lloc,mmax,r2well
    5.99000000000000    7.00000000000000    0.00000000000000   rchrg,fchrg,qchrg
     nproj     2     2     2
     extension_switch     1
  pspatm : epsatm=   26.09224486
         --- l  ekb(1:nproj) -->
             0    7.845850   -2.282160
             1    3.261104   -0.686948
             2   -1.134855   -0.401224
 pspatm: atomic psp has been read  and splines computed

   7.60865797E+04                                ecore*ucvol(ha*bohr**3)
--------------------------------------------------------------------------------

_setup2: Arith. and geom. avg. npw (full set) are   66952.000   66951.913

================================================================================

     iter   Etot(hartree)      deltaE(h)  residm     vres2
 ETOT  1  -1074.3302562682    -1.074E+03 4.506E-01 4.011E+06
 ETOT  2  -943.94229393694     1.304E+02 8.519E-02 3.175E+07
 ETOT  3  -1080.2712916409    -1.363E+02 1.949E-01 5.224E+06
 ETOT  4  -1111.3479719288    -3.108E+01 1.219E-01 8.650E+05
 ETOT  5  -1112.9663476056    -1.618E+00 7.724E-02 2.201E+06
 ETOT  6  -1108.8309277156     4.135E+00 2.908E-02 3.771E+06
 ETOT  7  -1107.1219105107     1.709E+00 1.033E-02 4.455E+06
 ETOT  8  -1105.4519067581     1.670E+00 9.845E-03 5.001E+06
 ETOT  9  -1103.8784641593     1.573E+00 5.053E-03 5.541E+06
 ETOT 10  -1110.1817156471    -6.303E+00 8.743E-02 3.299E+05

 Cartesian components of stress tensor (hartree/bohr^3)
  sigma(1 1)= -4.73931427E-02  sigma(3 2)=  3.01058483E-03
  sigma(2 2)= -1.43120432E-01  sigma(3 1)= -2.45515895E-03
  sigma(3 3)= -2.01049367E-02  sigma(2 1)= -7.46132072E-02


 scprqt:  WARNING -
  nstep=   10 was not enough SCF cycles to converge;
  maximum energy difference=  6.303E+00 exceeds toldfe=  1.000E-02

 Integrated electronic density in atomic spheres:
 ------------------------------------------------
 Atom  Sphere_radius  Integrated_density
    1        2.00000         21.20764158
    2        2.00000         14.62262567
    3        2.00000          9.78284344
    4        2.00000         10.42422697
    5        2.00000          6.53140039
    6        2.00000         10.77378267
    7        2.00000          6.09139946
    8        2.00000          6.77259315
    9        2.00000          7.66974291
   10        2.00000          6.72398908
   11        2.00000          2.36488385
   12        2.00000          3.21034499
   13        2.00000         17.07411773
   14        2.00000         18.50631433
   15        2.00000         27.41594805
   16        2.00000         29.52147177
   17        2.00000         21.96997298
   18        2.00000         29.39352339
   19        2.00000         15.97602180
   20        2.00000         15.74555667
================================================================================

 ----iterations are completed or convergence reached----

 Mean square residual over all n,k,spin=   3.1647E-03; max=  8.7432E-02
 reduced coordinates (array xred) for   20 atoms
       0.470516318103     -0.385273800098     -1.244431147502
       0.529753906808     -0.769385784636      0.943017834121
       0.045477757669      1.118862622214     -0.286392196405
       0.080388569580      1.019257676952      2.064812855864
       8.514281681248     -0.609142303058     -0.397939394106
       8.545703098016     -0.626722482989      0.976566417671
       0.634996177867     -0.451207813587      0.188692742718
       0.883081749170     -0.390227407639      1.538424696131
       0.210500139106      0.744432989625      0.320197406188
      -0.018087651284      0.399684955935      1.491883800447
       0.972425874671      0.948610512955     -0.558193657328
       0.968237182666      0.968539513849      0.816165755360
      -1.228352144398     -0.076368928406     -2.894142800124
       0.498146689372     -0.114219311466      1.753811957568
       1.384513345436      0.617724188736      0.713075477030
       0.456700059489      0.039412479279      0.094721943689
       1.339357577923     -0.438099010918      0.668281086259
       0.425996440166     -0.017999164871      0.095365930817
      -0.807940863011     -0.012700881370      2.279615512607
      -0.090125915050     -0.032913743069     -0.348859221005
 rms dE/dt=  1.5364E+03; max dE/dt=  7.2321E+03; dE/dt below (all hartree)
    1     -39.757147479050     29.985951717494   -487.206558768066
    2       0.959338148284     12.776381052278     58.021557539387
    3      -3.110031891326     -5.044990695603    -43.365861399369
    4       5.246840676041     -3.927189178295     61.598902243641
    5      -0.124795761701      0.149691349742      4.725669308185
    6      -1.271202397004    -11.787539064600    -49.871396634424
    7      -0.283950920492      0.253308852982     -0.387656715793
    8       0.179580212693     -1.127680797766      0.791948753015
    9      -0.521175182445      4.427923922160     -4.926158627629
   10      -0.484914306266      1.073422986732      8.698029694552
   11       0.022890006630      0.134486679136     -2.640784410008
   12       0.418004700837     -0.329929165869    -10.953477459052
   13     -13.897212012227     11.390110412506    -64.554378782892
   14      -5.370052287612    -37.484200033970    -48.464018888337
   15       7.974572379676    -40.857160368046   -313.447714854116
   16   -3861.342473765128  -7239.726016210355   1727.323155539089
   17      36.101038309320     47.418535322708    845.472884068387
   18    3870.197061560125   7232.108167303634  -1722.051172487934
   19       0.664277961964     -5.214966934258      4.656567648864
   20       4.482408106857      5.682065303350     40.689078640000

 cartesian coordinates (angstrom) at end:
    1      2.16140211171966    -1.76982513269255   -26.34098403670685
    2      2.43352072778522    -3.53431325473155    19.96094180442011
    3      0.20891033462582     5.13969854250004    -6.06208892221476
    4      0.36927948588057     4.68214514691098    43.70607613306863
    5     39.11189834990228    -2.79820573593457    -8.42321831043152
    6     39.25623833120274    -2.87896348346568    20.67106763623800
    7      2.91697020266508    -2.07270499149410     3.99407595490519
    8      4.05659630503666    -1.79258042807672    32.56397145298255
    9      0.96697059735392     3.41968806160938     6.77764678416757
   10     -0.08308890930307     1.83602539283513    31.57883620243863
   11      4.46701476258759     4.35761457576002   -11.81533445750441
   12      4.44777324556269     4.44916205872582    17.27585264672016
   13     -5.64265853634833    -0.35081453453592   -61.26057632922176
   14      2.28832723739637    -0.52468713943317    37.12309264391063
   15      6.36001335850300     2.83762818551606    15.09373161795719
   16      2.09793461995251     0.18104837741824     2.00498775013990
   17      6.15258214410278    -2.01248732702386    14.14556479121170
   18      1.95689197150863    -0.08268243090503     2.01861908257360
   19     -3.71142300546772    -0.05834380393781    48.25282294479807
   20     -0.41400974974521    -0.15119525303950    -7.38433395049041

 cartesian forces (hartree/bohr) at end:
    1      4.58037280918909    -3.45485820371346    12.18529973721102
    2     -0.11003425321690    -1.47237148990648    -1.44540317047530
    3      0.35874397455127     0.58059272397720     1.08928230299360
    4     -0.60394063601076     0.45182561526508    -1.53483678808165
    5      0.01485445634728    -0.01781779640630    -0.11300596469525
    6      0.14691678185913     1.35731242365891     1.25192068386998
    7      0.03318861435020    -0.02975419665050     0.01482718590421
    8     -0.02020866852524     0.12933133126713    -0.01466295081599
    9      0.06051607978574    -0.51065631041637     0.12828973370010
   10      0.05633894447805    -0.12422868445692    -0.21231497435442
   11     -0.00215846508056    -0.01606626767562     0.07115537825958
   12     -0.04767439612455     0.03743293113154     0.27897270448568
   13      1.60139213150694    -1.31267760918435     1.61899523758167
   14      0.61909099283137     4.31748440888714     1.21673624021780
   15     -0.91816647966978     4.70603849768960     7.84132863936228
   16    444.81460540135555   833.99237798740353   -43.17794312046785
   17     -4.15824411417856    -5.46303528476749   -21.13168633370031
   18   -445.83366841272306  -833.11597418221095    43.05641508020771
   19     -0.07604427691056     0.60017343527742    -0.11127842321223
   20     -0.51588048381462    -0.65512932916922    -1.01209119799064
 frms,max,avg= 1.7276059E+02 8.3399238E+02  -4.784E-04  5.738E-04 -5.136E-03 h/b

 cartesian forces (eV/Angstrom) at end:
    1    235.53222003806891  -177.65593687152901   626.59325310306315
    2     -5.65818832222846   -75.71237979640097   -74.32561317042266
    3     18.44735532920521    29.85527574130138    56.01314341870891
    4    -31.05587354929760    23.23380534002692   -78.92447430648555
    5      0.76384679297613    -0.91622785275114    -5.81099985765747
    6      7.55476404075846    69.79580522098027    64.37634451761498
    7      1.70662702437858    -1.53002218039590     0.76244449052891
    8     -1.03917142993560     6.65048388915293    -0.75399918344449
    9      3.11186167888792   -26.25900106373884     6.59692279324040
   10      2.89706476313359    -6.38809526243048   -10.91767402790875
   11     -0.11099272777087    -0.82616063167878     3.65895635733094
   12     -2.45151581016756     1.92487855011643    14.34535203896853
   13     82.34688738188116   -67.50059097049618    83.25207541483556
   14     31.83493615511178   222.01395610523915    62.56708783274942
   15    -47.21401473856178   241.99420901323657   403.21729680428763
   16  22873.28474777295924 42885.60876270193694 -2220.29891965097795
   17   -213.82549160798601  -280.92054563466672 -1086.63491000980662
   18     -22925.68707034035833    -42840.54227084942249      2214.04969708509361
   19     -3.91035361270194    30.86215631512981    -5.72216611035017
   20    -26.52763883835100   -33.68810176361914   -52.04381753936880
 frms,max,avg= 8.8837058E+03 4.2885609E+04  -2.460E-02  2.951E-02 -2.641E-01 e/A
 length scales=  8.680800000000  8.680800000000 40.000000000000 bohr
              =  4.593681512328  4.593681512328 21.167088343600 angstroms
 prteigrs : about to open file sim6geom_o_EIG
 Fermi (or HOMO) energy (hartree) =   0.19785   Average Vxc (hartree)=  -0.31163
 Eigenvalues (hartree) for nkpt=   2  k points:
 kpt#   1, nband=123, wtk=  0.50000, kpt=  0.1250  0.5000  0.5000 (reduced coord)
  -6.30148   -5.54747   -5.47965   -4.90509   -4.21538   -4.00071   -3.62143   -3.58976
  -3.34474   -3.25589   -3.02212   -2.95317   -2.94281   -2.89659   -2.88146   -2.85342
  -2.78810   -2.74990   -2.51267   -2.39552   -2.24945   -2.20059   -2.11393   -1.97692
  -1.97333   -1.95960   -1.94849   -1.92867   -1.88164   -1.84738   -1.76615   -1.74651
  -1.74404   -1.72246   -1.67696   -1.65986   -1.63851   -1.48965   -1.43715   -1.42691
  -1.42505   -1.28330   -1.07947   -1.02992   -1.02116   -0.99584   -0.98068   -0.96729
  -0.96364   -0.85894   -0.84425   -0.76565   -0.74350   -0.67496   -0.65386   -0.57666
  -0.56938   -0.56221   -0.53710   -0.52573   -0.51839   -0.50823   -0.49620   -0.46663
  -0.43959   -0.42380   -0.38909   -0.35534   -0.33628   -0.32368   -0.32087   -0.31723
  -0.30401   -0.27164   -0.21328   -0.20629   -0.19418   -0.18672   -0.14179   -0.11936
  -0.11237   -0.10384   -0.09343   -0.09056   -0.08492   -0.06372   -0.06002   -0.05229
  -0.04989   -0.04387   -0.03883   -0.01703   -0.01286   -0.00919   -0.00105    0.00135
   0.01762    0.02129    0.03803    0.04054    0.04306    0.05134    0.06003    0.06953
   0.07617    0.08193    0.09655    0.09865    0.09902    0.10781    0.10911    0.11344
   0.12988    0.14308    0.16590    0.16852    0.17415    0.17792    0.19152    0.19716
   0.21080    0.22200    0.23954
 prteigrs : prtvol=0 or 1, do not print more k-points.


--------------------------------------------------------------------------------
 Components of total free energy (in Hartree) :

    Kinetic energy  =  6.39305915646745E+02
    Hartree energy  =  1.53555797134435E+03
    XC energy       = -2.51974799867467E+02
    Ewald energy    =  6.84265876087061E+02
    PspCore energy  =  2.52422793959398E+01
    Loc. psp. energy= -3.73348531796649E+03
    NL   psp  energy= -9.09364028723418E+00
    >>>>>>>>> Etotal= -1.11018171564710E+03

 Other information on the energy :
    Total energy(eV)= -3.02095808188265E+04 ; Band energy (Ha)=  -2.6110273401E+02
--------------------------------------------------------------------------------

 Cartesian components of stress tensor (hartree/bohr^3)
  sigma(1 1)= -4.73931427E-02  sigma(3 2)=  3.01058483E-03
  sigma(2 2)= -1.43120432E-01  sigma(3 1)= -2.45515895E-03
  sigma(3 3)= -2.01049367E-02  sigma(2 1)= -7.46132072E-02

-Cartesian components of stress tensor (GPa)         [Pressure=  2.0655E+03 GPa]
- sigma(1 1)= -1.39435416E+03  sigma(3 2)=  8.85744489E+01
- sigma(2 2)= -4.21074778E+03  sigma(3 1)= -7.22332581E+01
- sigma(3 3)= -5.91507560E+02  sigma(2 1)= -2.19519597E+03

== END DATASET(S) ==============================================================
================================================================================
  
 -outvars: echo values of variables after computation  --------
            acell      8.6808000000E+00  8.6808000000E+00  4.0000000000E+01 Bohr
              amu      4.78800000E+01  1.59994000E+01  1.06420000E+02
           diemac      1.20000000E+01
             ecut      6.00000000E+01 Hartree
           etotal     -1.1101817156E+03
            fcart      4.5803728092E+00 -3.4548582037E+00  1.2185299737E+01
                      -1.1003425322E-01 -1.4723714899E+00 -1.4454031705E+00
                       3.5874397455E-01  5.8059272398E-01  1.0892823030E+00
                      -6.0394063601E-01  4.5182561527E-01 -1.5348367881E+00
                       1.4854456347E-02 -1.7817796406E-02 -1.1300596470E-01
                       1.4691678186E-01  1.3573124237E+00  1.2519206839E+00
                       3.3188614350E-02 -2.9754196651E-02  1.4827185904E-02
                      -2.0208668525E-02  1.2933133127E-01 -1.4662950816E-02
                       6.0516079786E-02 -5.1065631042E-01  1.2828973370E-01
                       5.6338944478E-02 -1.2422868446E-01 -2.1231497435E-01
                      -2.1584650806E-03 -1.6066267676E-02  7.1155378260E-02
                      -4.7674396125E-02  3.7432931132E-02  2.7897270449E-01
                       1.6013921315E+00 -1.3126776092E+00  1.6189952376E+00
                       6.1909099283E-01  4.3174844089E+00  1.2167362402E+00
                      -9.1816647967E-01  4.7060384977E+00  7.8413286394E+00
                       4.4481460540E+02  8.3399237799E+02 -4.3177943120E+01
                      -4.1582441142E+00 -5.4630352848E+00 -2.1131686334E+01
                      -4.4583366841E+02 -8.3311597418E+02  4.3056415080E+01
                      -7.6044276911E-02  6.0017343528E-01 -1.1127842321E-01
                      -5.1588048381E-01 -6.5512932917E-01 -1.0120911980E+00
-          fftalg         112
              ixc          11
              kpt      1.25000000E-01  5.00000000E-01  5.00000000E-01
                       3.75000000E-01  5.00000000E-01  5.00000000E-01
           kptopt           2
         kptrlatt        4    0    0      0    1    0      0    0    1
          kptrlen      8.68080000E+00
P           mkmem           2
            natom          20
            nband         123
            ngfft          64      64     288
             nkpt           2
            nstep          10
             nsym           1
           ntypat           3
              occ      2.000000  2.000000  2.000000  2.000000  2.000000  2.000000
                       2.000000  2.000000  2.000000  2.000000  2.000000  2.000000
                       2.000000  2.000000  2.000000  2.000000  2.000000  2.000000
                       2.000000  2.000000  2.000000  2.000000  2.000000  2.000000
                       2.000000  2.000000  2.000000  2.000000  2.000000  2.000000
                       2.000000  2.000000  2.000000  2.000000  2.000000  2.000000
                       2.000000  2.000000  2.000000  2.000000  2.000000  2.000000
                       2.000000  2.000000  2.000000  2.000000  2.000000  2.000000
                       2.000000  2.000000  2.000000  2.000000  2.000000  2.000000
                       2.000000  2.000000  2.000000  2.000000  2.000000  2.000000
                       2.000000  2.000000  2.000000  2.000000  2.000000  2.000000
                       2.000000  2.000000  2.000000  2.000000  2.000000  2.000000
                       2.000000  2.000000  2.000000  2.000000  2.000000  2.000000
                       2.000000  2.000000  2.000000  2.000000  2.000000  2.000000
                       2.000000  2.000000  2.000000  2.000000  2.000000  2.000000
                       2.000000  2.000000  2.000000  2.000000  2.000000  2.000000
                       2.000000  2.000000  2.000000  2.000000  2.000000  2.000000
                       2.000000  2.000000  2.000000  2.000000  2.000000  2.000000
                       2.000000  2.000000  2.000000  2.000000  2.000000  2.000000
                       2.000000  2.000000  2.000000  2.000000  2.000000  2.000000
                       0.000000  0.000000  0.000000
           shiftk      5.00000000E-01  5.00000000E-01  5.00000000E-01
          spgroup           1
           strten     -4.7393142681E-02 -1.4312043222E-01 -2.0104936715E-02
                       3.0105848317E-03 -2.4551589548E-03 -7.4613207177E-02
           toldfe      1.00000000E-02 Hartree
            typat      1  1  1  1  2  2  2  2  2  2  2  2  3  3  3  3  3  3  3  3
              wtk        0.50000    0.50000
           xangst      2.1614021117E+00 -1.7698251327E+00 -2.6340984037E+01
                       2.4335207278E+00 -3.5343132547E+00  1.9960941804E+01
                       2.0891033463E-01  5.1396985425E+00 -6.0620889222E+00
                       3.6927948588E-01  4.6821451469E+00  4.3706076133E+01
                       3.9111898350E+01 -2.7982057359E+00 -8.4232183104E+00
                       3.9256238331E+01 -2.8789634835E+00  2.0671067636E+01
                       2.9169702027E+00 -2.0727049915E+00  3.9940759549E+00
                       4.0565963050E+00 -1.7925804281E+00  3.2563971453E+01
                       9.6697059735E-01  3.4196880616E+00  6.7776467842E+00
                      -8.3088909303E-02  1.8360253928E+00  3.1578836202E+01
                       4.4670147626E+00  4.3576145758E+00 -1.1815334458E+01
                       4.4477732456E+00  4.4491620587E+00  1.7275852647E+01
                      -5.6426585363E+00 -3.5081453454E-01 -6.1260576329E+01
                       2.2883272374E+00 -5.2468713943E-01  3.7123092644E+01
                       6.3600133585E+00  2.8376281855E+00  1.5093731618E+01
                       2.0979346200E+00  1.8104837742E-01  2.0049877501E+00
                       6.1525821441E+00 -2.0124873270E+00  1.4145564791E+01
                       1.9568919715E+00 -8.2682430905E-02  2.0186190826E+00
                      -3.7114230055E+00 -5.8343803938E-02  4.8252822945E+01
                      -4.1400974975E-01 -1.5119525304E-01 -7.3843339505E+00
            xcart      4.0844580542E+00 -3.3444848039E+00 -4.9777245900E+01
                       4.5986877142E+00 -6.6788841193E+00  3.7720713365E+01
                       3.9478331877E-01  9.7126226509E+00 -1.1455687856E+01
                       6.9783709481E-01  8.8479720421E+00  8.2592514235E+01
                       7.3910776419E+01 -5.2878425044E+00 -1.5917575764E+01
                       7.4183539453E+01 -5.4404525303E+00  3.9062656707E+01
                       5.5122748208E+00 -3.9168447882E+00  7.5477097087E+00
                       7.6658560482E+00 -3.3874860802E+00  6.1536987845E+01
                       1.8273096076E+00  6.4622738963E+00  1.2807896248E+01
                      -1.5701528326E-01  3.4695851655E+00  5.9675352018E+01
                       8.4414345328E+00  8.2346981409E+00 -2.2327746293E+01
                       8.4050733353E+00  8.4076978118E+00  3.2646630214E+01
                      -1.0663079295E+01 -6.6294339371E-01 -1.1576571200E+02
                       4.3243117811E+00 -9.9151499898E-01  7.0152478303E+01
                       1.2018683449E+01  5.3623401376E+00  2.8523019081E+01
                       3.9645218764E+00  3.4213185012E-01  3.7888777476E+00
                       1.1626695262E+01 -3.8030498940E+00  2.6731243450E+01
                       3.6979898978E+00 -1.5624715041E-01  3.8146372327E+00
                      -7.0135730436E+00 -1.1025381099E-01  9.1184620504E+01
                      -7.8236504336E-01 -2.8571762084E-01 -1.3954368840E+01
             xred      4.7051631810E-01 -3.8527380010E-01 -1.2444311475E+00
                       5.2975390681E-01 -7.6938578464E-01  9.4301783412E-01
                       4.5477757669E-02  1.1188626222E+00 -2.8639219640E-01
                       8.0388569580E-02  1.0192576770E+00  2.0648128559E+00
                       8.5142816812E+00 -6.0914230306E-01 -3.9793939411E-01
                       8.5457030980E+00 -6.2672248299E-01  9.7656641767E-01
                       6.3499617787E-01 -4.5120781359E-01  1.8869274272E-01
                       8.8308174917E-01 -3.9022740764E-01  1.5384246961E+00
                       2.1050013911E-01  7.4443298963E-01  3.2019740619E-01
                      -1.8087651284E-02  3.9968495594E-01  1.4918838004E+00
                       9.7242587467E-01  9.4861051295E-01 -5.5819365733E-01
                       9.6823718267E-01  9.6853951385E-01  8.1616575536E-01
                      -1.2283521444E+00 -7.6368928406E-02 -2.8941428001E+00
                       4.9814668937E-01 -1.1421931147E-01  1.7538119576E+00
                       1.3845133454E+00  6.1772418874E-01  7.1307547703E-01
                       4.5670005949E-01  3.9412479279E-02  9.4721943689E-02
                       1.3393575779E+00 -4.3809901092E-01  6.6828108626E-01
                       4.2599644017E-01 -1.7999164871E-02  9.5365930817E-02
                      -8.0794086301E-01 -1.2700881370E-02  2.2796155126E+00
                      -9.0125915050E-02 -3.2913743069E-02 -3.4885922100E-01
            znucl       22.00000    8.00000   46.00000

================================================================================

- Total cpu        time (s,m,h):       1983.5       33.06      0.551
- Total wall clock time (s,m,h):       1989.2       33.15      0.553
-
- For major independent code sections, cpu and wall times (sec),
-  as well as % of the time and number of calls for node 0-
-<BEGIN_TIMER mpi_nprocs = 1, omp_nthreads = 1, mpi_rank = 0>
- cpu_time =         1983.5, wall_time =         1989.2
-
- routine                        cpu     %       wall     %      number of calls  Gflops    Speedup Efficacity
-                                                                  (-1=no count)
- projbd                       688.656  34.7    690.174  34.7          23576      -1.00        1.00       1.00
- nonlop(apply)                558.234  28.1    557.446  28.0          14740      -1.00        1.00       1.00
- fourwf%(pot)                 398.219  20.1    398.802  20.0          14740      -1.00        1.00       1.00
- vtowfk(ssdiag)               116.000   5.8    116.448   5.9             -1      -1.00        1.00       1.00
- fourwf%(den)                  37.062   1.9     37.154   1.9           2400      -1.00        1.00       1.00
- nonlop(forstr)                26.812   1.4     26.967   1.4            240      -1.00        0.99       0.99
- others (107)                  31.656   1.6     32.205   1.6             -1      -1.00        0.98       0.98
-<END_TIMER>
-
- subtotal                    1856.641  93.6   1859.196  93.5                                  1.00       1.00

- For major independent code sections, cpu and wall times (sec),
- as well as % of the total time and number of calls 

-<BEGIN_TIMER mpi_nprocs = 1, omp_nthreads = 1, mpi_rank = world>
- cpu_time =        1983.5, wall_time =        1989.2
-
- routine                         cpu     %       wall     %      number of calls Gflops    Speedup Efficacity
-                                                                  (-1=no count)
- projbd                       688.656  34.7    690.174  34.7          23576      -1.00        1.00       1.00
- nonlop(apply)                558.234  28.1    557.446  28.0          14740      -1.00        1.00       1.00
- fourwf%(pot)                 398.219  20.1    398.802  20.0          14740      -1.00        1.00       1.00
- vtowfk(ssdiag)               116.000   5.8    116.448   5.9             -1      -1.00        1.00       1.00
- fourwf%(den)                  37.062   1.9     37.154   1.9           2400      -1.00        1.00       1.00
- nonlop(forstr)                26.812   1.4     26.967   1.4            240      -1.00        0.99       0.99
- others (107)                  31.656   1.6     32.205   1.6             -1      -1.00        0.98       0.98
-<END_TIMER>

- subtotal                    1856.641  93.6   1859.196  93.5                                  1.00       1.00

================================================================================

 Suggested references for the acknowledgment of ABINIT usage.

 The users of ABINIT have little formal obligations with respect to the ABINIT group
 (those specified in the GNU General Public License, http://www.gnu.org/copyleft/gpl.txt).
 However, it is common practice in the scientific literature,
 to acknowledge the efforts of people that have made the research possible.
 In this spirit, please find below suggested citations of work written by ABINIT developers,
 corresponding to implementations inside of ABINIT that you have used in the present run.
 Note also that it will be of great value to readers of publications presenting these results,
 to read papers enabling them to understand the theoretical formalism and details
 of the ABINIT implementation.
 For information on why they are suggested, see also https://www.abinit.org/about/?text=acknowledgments.
-
- [1] Recent developments in the ABINIT software package.
- Computer Phys. Comm. 205, 106 (2016).
- X.Gonze, F.Jollet, F.Abreu Araujo, D.Adams, B.Amadon, T.Applencourt,
- C.Audouze, J.-M.Beuken, J.Bieder, A.Bokhanchuk, E.Bousquet, F.Bruneval
- D.Caliste, M.Cote, F.Dahm, F.Da Pieve, M.Delaveau, M.Di Gennaro,
- B.Dorado, C.Espejo, G.Geneste, L.Genovese, A.Gerossier, M.Giantomassi,
- Y.Gillet, D.R.Hamann, L.He, G.Jomard, J.Laflamme Janssen, S.Le Roux,
- A.Levitt, A.Lherbier, F.Liu, I.Lukacevic, A.Martin, C.Martins,
- M.J.T.Oliveira, S.Ponce, Y.Pouillon, T.Rangel, G.-M.Rignanese,
- A.H.Romero, B.Rousseau, O.Rubel, A.A.Shukri, M.Stankovski, M.Torrent,
- M.J.Van Setten, B.Van Troeye, M.J.Verstraete, D.Waroquier, J.Wiktor,
- B.Xue, A.Zhou, J.W.Zwanziger.
- Comment : the fourth generic paper describing the ABINIT project.
- Note that a version of this paper, that is not formatted for Computer Phys. Comm. 
- is available at https://www.abinit.org/about/ABINIT16.pdf .
- The licence allows the authors to put it on the Web.
-
- [2] Optimized norm-conserving Vanderbilt pseudopotentials.
- D.R. Hamann, Phys. Rev. B 88, 085117 (2013).
- Comment: Some pseudopotential generated using the ONCVPSP code were used.
-
- [3] ABINIT : First-principles approach of materials and nanosystem properties.
- Computer Phys. Comm. 180, 2582-2615 (2009).
- X. Gonze, B. Amadon, P.-M. Anglade, J.-M. Beuken, F. Bottin, P. Boulanger, F. Bruneval,
- D. Caliste, R. Caracas, M. Cote, T. Deutsch, L. Genovese, Ph. Ghosez, M. Giantomassi
- S. Goedecker, D.R. Hamann, P. Hermet, F. Jollet, G. Jomard, S. Leroux, M. Mancini, S. Mazevet,
- M.J.T. Oliveira, G. Onida, Y. Pouillon, T. Rangel, G.-M. Rignanese, D. Sangalli, R. Shaltaf,
- M. Torrent, M.J. Verstraete, G. Zerah, J.W. Zwanziger
- Comment : the third generic paper describing the ABINIT project.
- Note that a version of this paper, that is not formatted for Computer Phys. Comm. 
- is available at https://www.abinit.org/about/ABINIT_CPC_v10.pdf .
- The licence allows the authors to put it on the Web.
-
- [4] A brief introduction to the ABINIT software package.
- Z. Kristallogr. 220, 558-562 (2005).
- X. Gonze, G.-M. Rignanese, M. Verstraete, J.-M. Beuken, Y. Pouillon, R. Caracas, F. Jollet,
- M. Torrent, G. Zerah, M. Mikami, Ph. Ghosez, M. Veithen, J.-Y. Raty, V. Olevano, F. Bruneval,
- L. Reining, R. Godby, G. Onida, D.R. Hamann, and D.C. Allan.
- Comment : the second generic paper describing the ABINIT project. Note that this paper
- should be cited especially if you are using the GW part of ABINIT, as several authors
- of this part are not in the list of authors of the first or third paper.
- The .pdf of the latter paper is available at https://www.abinit.org/about/zfk_0505-06_558-562.pdf.
- Note that it should not redistributed (Copyright by Oldenburg Wissenshaftverlag,
- the licence allows the authors to put it on the Web).
-
- And optionally:
-
- [5] First-principles computation of material properties : the ABINIT software project. 
- X. Gonze, J.-M. Beuken, R. Caracas, F. Detraux, M. Fuchs, G.-M. Rignanese, L. Sindic,
- M. Verstraete, G. Zerah, F. Jollet, M. Torrent, A. Roy, M. Mikami, Ph. Ghosez, J.-Y. Raty, D.C. Allan.
- Computational Materials Science 25, 478-492 (2002). http://dx.doi.org/10.1016/S0927-0256(02)00325-7
- Comment : the original paper describing the ABINIT project.
-
- Proc.   0 individual time (sec): cpu=       1983.5  wall=       1989.2

================================================================================

 Calculation completed.
.Delivered   2 WARNINGs and   4 COMMENTs to log file.
+Overall time at end (sec) : cpu=       1983.5  wall=       1989.2
