
.Version 8.6.3 of ABINIT 
.(sequential version, prepared for a x86_64_linux_gnu5.4 computer) 

.Copyright (C) 1998-2017 ABINIT group . 
 ABINIT comes with ABSOLUTELY NO WARRANTY.
 It is free software, and you are welcome to redistribute it
 under certain conditions (GNU General Public License,
 see ~abinit/COPYING or http://www.gnu.org/copyleft/gpl.txt).

 ABINIT is a project of the Universite Catholique de Louvain,
 Corning Inc. and other collaborators, see ~abinit/doc/developers/contributors.txt .
 Please read ~abinit/doc/users/acknowledgments.html for suggested
 acknowledgments of the ABINIT effort.
 For more information, see https://www.abinit.org .

.Starting date : Sun 22 Apr 2018.
- ( at 11h28 )
  
- input  file    -> totalGeom1Layer.in
- output file    -> totalGeom1Layer.out
- root for input  files -> totalGeom1Layer_i
- root for output files -> totalGeom1Layer_o


 Symmetries : space group P1 (#  1); Bravais aP (primitive triclinic)
================================================================================
 Values of the parameters that define the memory need of the present run
     intxc =       0    ionmov =       5      iscf =       7    lmnmax =       6
     lnmax =       6     mgfft =     320  mpssoang =       3    mqgrid =   15343
     natom =      10  nloc_mem =       1    nspden =       1   nspinor =       1
    nsppol =       1      nsym =       1    n1xccc =    2501    ntypat =       3
    occopt =       1   xclevel =       2
-    mband =          62        mffmem =           1         mkmem =           2
       mpw =       89056          nfft =     1658880          nkpt =           2
================================================================================
P This job should need less than                     670.917 Mbytes of memory.
  Rough estimation (10% accuracy) of disk space for files :
_ WF disk file :    168.504 Mbytes ; DEN or POT disk file :     12.658 Mbytes.
================================================================================

--------------------------------------------------------------------------------
------------- Echo of variables that govern the present computation ------------
--------------------------------------------------------------------------------
-
- outvars: echo of selected default values                                      
-   iomode0 =  0 , fftalg0 =112 , wfoptalg0 =  0
-
- outvars: echo of global parameters not present in the input file              
-  max_nthreads =    0
-
 -outvars: echo values of preprocessed input variables --------
            acell      8.6808000000E+00  8.6808000000E+00  4.0000000000E+01 Bohr
              amu      4.78800000E+01  1.59994000E+01  1.06420000E+02
           diemac      1.20000000E+01
          dilatmx      1.10000000E+00
             ecut      6.00000000E+01 Hartree
           ecutsm      5.00000000E-01 Hartree
-          fftalg         112
           ionmov           5
              ixc          11
              kpt      1.25000000E-01  5.00000000E-01  5.00000000E-01
                       3.75000000E-01  5.00000000E-01  5.00000000E-01
           kptopt           2
         kptrlatt        4    0    0      0    1    0      0    0    1
          kptrlen      8.68080000E+00
P           mkmem           2
            natom          10
            nband          62
            ngfft          72      72     320
             nkpt           2
            nstep          10
             nsym           1
            ntime          10
           ntypat           3
              occ      2.000000  2.000000  2.000000  2.000000  2.000000  2.000000
                       2.000000  2.000000  2.000000  2.000000  2.000000  2.000000
                       2.000000  2.000000  2.000000  2.000000  2.000000  2.000000
                       2.000000  2.000000  2.000000  2.000000  2.000000  2.000000
                       2.000000  2.000000  2.000000  2.000000  2.000000  2.000000
                       2.000000  2.000000  2.000000  2.000000  2.000000  2.000000
                       2.000000  2.000000  2.000000  2.000000  2.000000  2.000000
                       2.000000  2.000000  2.000000  2.000000  2.000000  2.000000
                       2.000000  2.000000  2.000000  2.000000  2.000000  2.000000
                       2.000000  2.000000  2.000000  2.000000  2.000000  2.000000
                       0.000000  0.000000
           shiftk      5.00000000E-01  5.00000000E-01  5.00000000E-01
          spgroup           1
           toldfe      1.00000000E-02 Hartree
            typat      1  1  2  2  2  2  3  3  3  3
              wtk        0.50000    0.50000
           xangst      0.0000000000E+00  0.0000000000E+00  0.0000000000E+00
                       2.2968407562E+00  1.4793678043E+00  2.2968407562E+00
                       3.9876836484E+01  0.0000000000E+00  1.4240158683E+00
                       3.1696656440E+00  0.0000000000E+00  3.1696656440E+00
                       8.7282488785E-01  1.4793678043E+00  3.7208566245E+00
                       3.7208566245E+00  1.4793678043E+00  8.7282488785E-01
                       8.7282488785E-01  0.0000000000E+00  7.5041561596E+00
                       1.9453612542E+00  1.3755961537E+00  8.8797523133E+00
                       1.9453612542E+00 -1.3755961537E+00  8.8797523133E+00
                       0.0000000000E+00  0.0000000000E+00  1.0255295549E+01
            xcart      0.0000000000E+00  0.0000000000E+00  0.0000000000E+00
                       4.3404000000E+00  2.7956000000E+00  4.3404000000E+00
                       7.5356300000E+01  0.0000000000E+00  2.6910000000E+00
                       5.9898000000E+00  0.0000000000E+00  5.9898000000E+00
                       1.6494000000E+00  2.7956000000E+00  7.0314000000E+00
                       7.0314000000E+00  2.7956000000E+00  1.6494000000E+00
                       1.6494000000E+00  0.0000000000E+00  1.4180800000E+01
                       3.6762000000E+00  2.5995000000E+00  1.6780300000E+01
                       3.6762000000E+00 -2.5995000000E+00  1.6780300000E+01
                       0.0000000000E+00  0.0000000000E+00  1.9379700000E+01
             xred      0.0000000000E+00  0.0000000000E+00  0.0000000000E+00
                       5.0000000000E-01  3.2204405124E-01  1.0851000000E-01
                       8.6808013086E+00  0.0000000000E+00  6.7275000000E-02
                       6.9000552944E-01  0.0000000000E+00  1.4974500000E-01
                       1.9000552944E-01  3.2204405124E-01  1.7578500000E-01
                       8.0999447056E-01  3.2204405124E-01  4.1235000000E-02
                       1.9000552944E-01  0.0000000000E+00  3.5452000000E-01
                       4.2348631463E-01  2.9945396738E-01  4.1950750000E-01
                       4.2348631463E-01 -2.9945396738E-01  4.1950750000E-01
                       0.0000000000E+00  0.0000000000E+00  4.8449250000E-01
            znucl       22.00000    8.00000   46.00000

================================================================================

 chkinp: Checking input parameters for consistency.

================================================================================
== DATASET  1 ==================================================================
-   nproc =    1

 Exchange-correlation functional for the present dataset will be:
  GGA: Perdew-Burke-Ernzerhof functional - ixc=11
 Citation for XC functional:
  J.P.Perdew, K.Burke, M.Ernzerhof, PRL 77, 3865 (1996)

 Real(R)+Recip(G) space primitive vectors, cartesian coordinates (Bohr,Bohr^-1):
 R(1)=  8.6808000  0.0000000  0.0000000  G(1)=  0.1151968  0.0000000  0.0000000
 R(2)=  0.0000000  8.6808000  0.0000000  G(2)=  0.0000000  0.1151968  0.0000000
 R(3)=  0.0000000  0.0000000 40.0000000  G(3)=  0.0000000  0.0000000  0.0250000
 Unit cell volume ucvol=  3.0142515E+03 bohr^3
 Angles (23,13,12)=  9.00000000E+01  9.00000000E+01  9.00000000E+01 degrees

 getcut: wavevector=  0.0000  0.0000  0.0000  ngfft=  72  72 320
         ecut(hartree)=     72.600   => boxcut(ratio)=   2.08572

--- Pseudopotential description ------------------------------------------------
- pspini: atom type   1  psp file is ../../../Psps_for_tests/Ti.psp8
- pspatm: opening atomic psp file    ../../../Psps_for_tests/Ti.psp8
- Ti    ONCVPSP-3.2.3.1  r_core=   1.35825   1.31050   1.66360
- 22.00000  12.00000    170504                znucl, zion, pspdat
    8   11    2    4       600   0.00000      pspcod,pspxc,lmax,lloc,mmax,r2well
    5.99000000000000    2.50000000000000    0.00000000000000   rchrg,fchrg,qchrg
     nproj     2     2     2
     extension_switch     1
  pspatm : epsatm=   14.68144390
         --- l  ekb(1:nproj) -->
             0   11.362348    1.263639
             1    1.975402   -0.084666
             2   -5.186090   -1.477451
 pspatm: atomic psp has been read  and splines computed

- pspini: atom type   2  psp file is ../../../Psps_for_tests/O.psp8
- pspatm: opening atomic psp file    ../../../Psps_for_tests/O.psp8
- O     ONCVPSP-3.2.3.1  r_core=   1.35509   1.45563   1.26150
-  8.00000   6.00000    170504                znucl, zion, pspdat
    8   11    2    4       600   0.00000      pspcod,pspxc,lmax,lloc,mmax,r2well
    5.99000000000000    4.00000000000000    0.00000000000000   rchrg,fchrg,qchrg
     nproj     2     2     1
     extension_switch     1
  pspatm : epsatm=    6.19546011
         --- l  ekb(1:nproj) -->
             0    6.056735    0.824024
             1   -4.717130   -1.149271
             2   -1.331955
 pspatm: atomic psp has been read  and splines computed

- pspini: atom type   3  psp file is ../../../Psps_for_tests/Pd.psp8
- pspatm: opening atomic psp file    ../../../Psps_for_tests/Pd.psp8
- Pd    ONCVPSP-3.2.3.1  r_core=   1.41052   1.46191   1.55175
- 46.00000  18.00000    170510                znucl, zion, pspdat
    8   11    2    4       600   0.00000      pspcod,pspxc,lmax,lloc,mmax,r2well
    5.99000000000000    7.00000000000000    0.00000000000000   rchrg,fchrg,qchrg
     nproj     2     2     2
     extension_switch     1
  pspatm : epsatm=   26.09224486
         --- l  ekb(1:nproj) -->
             0    7.845850   -2.282160
             1    3.261104   -0.686948
             2   -1.134855   -0.401224
 pspatm: atomic psp has been read  and splines computed

   1.90216449E+04                                ecore*ucvol(ha*bohr**3)
--------------------------------------------------------------------------------

_setup2: Arith. and geom. avg. npw (full set) are   89056.000   89056.000

================================================================================

=== [ionmov= 5] Simple relaxation of ionic positions                        
================================================================================

--- Iteration: ( 1/10) Internal Cycle: (1/1)
--------------------------------------------------------------------------------

---SELF-CONSISTENT-FIELD CONVERGENCE--------------------------------------------

     iter   Etot(hartree)      deltaE(h)  residm     vres2
 ETOT  1  -626.20635677329    -6.262E+02 1.864E-01 4.244E+07
 ETOT  2  -69.437111787458     5.568E+02 2.635E-01 3.159E+08
 ETOT  3  -494.37683468738    -4.249E+02 9.235E-01 1.070E+08
 ETOT  4  -711.44761474726    -2.171E+02 7.480E-01 3.845E+06
 ETOT  5  -721.20909497099    -9.761E+00 1.259E-01 8.807E+05
 ETOT  6  -719.12305291144     2.086E+00 3.820E-02 2.362E+06
 ETOT  7  -723.49506661042    -4.372E+00 1.569E-02 3.968E+05
 ETOT  8  -722.89135355909     6.037E-01 1.939E-02 1.137E+06
 ETOT  9  -717.91268673526     4.979E+00 2.117E-02 3.636E+06
 ETOT 10  -705.00075657422     1.291E+01 3.782E-02 8.184E+06

 Cartesian components of stress tensor (hartree/bohr^3)
  sigma(1 1)= -2.00665616E-03  sigma(3 2)= -1.12956753E-04
  sigma(2 2)= -3.18270065E-03  sigma(3 1)=  8.20835304E-04
  sigma(3 3)=  7.29871970E-03  sigma(2 1)=  1.91547601E-04


 scprqt:  WARNING -
  nstep=   10 was not enough SCF cycles to converge;
  maximum energy difference=  1.291E+01 exceeds toldfe=  1.000E-02

 Integrated electronic density in atomic spheres:
 ------------------------------------------------
 Atom  Sphere_radius  Integrated_density
    1        2.00000          9.38216909
    2        2.00000          9.07463585
    3        2.00000          5.05221218
    4        2.00000          4.34922503
    5        2.00000          2.81198918
    6        2.00000          4.19277018
    7        2.00000         15.66286808
    8        2.00000         15.73429394
    9        2.00000         15.69874281
   10        2.00000         15.73008387

---OUTPUT-----------------------------------------------------------------------

 Cartesian coordinates (xcart) [bohr]
  0.00000000000000E+00  0.00000000000000E+00  0.00000000000000E+00
  4.34040000000000E+00  2.79560000000000E+00  4.34040000000000E+00
  7.53563000000000E+01  0.00000000000000E+00  2.69100000000000E+00
  5.98980000000000E+00  0.00000000000000E+00  5.98980000000000E+00
  1.64940000000000E+00  2.79560000000000E+00  7.03140000000000E+00
  7.03140000000000E+00  2.79560000000000E+00  1.64940000000000E+00
  1.64940000000000E+00  0.00000000000000E+00  1.41808000000000E+01
  3.67620000000000E+00  2.59950000000000E+00  1.67803000000000E+01
  3.67620000000000E+00 -2.59950000000000E+00  1.67803000000000E+01
  0.00000000000000E+00  0.00000000000000E+00  1.93797000000000E+01
 Reduced coordinates (xred)
  0.00000000000000E+00  0.00000000000000E+00  0.00000000000000E+00
  5.00000000000000E-01  3.22044051239517E-01  1.08510000000000E-01
  8.68080130863515E+00  0.00000000000000E+00  6.72750000000000E-02
  6.90005529444291E-01  0.00000000000000E+00  1.49745000000000E-01
  1.90005529444291E-01  3.22044051239517E-01  1.75785000000000E-01
  8.09994470555709E-01  3.22044051239517E-01  4.12350000000000E-02
  1.90005529444291E-01  0.00000000000000E+00  3.54520000000000E-01
  4.23486314625380E-01  2.99453967376279E-01  4.19507500000000E-01
  4.23486314625380E-01 -2.99453967376279E-01  4.19507500000000E-01
  0.00000000000000E+00  0.00000000000000E+00  4.84492500000000E-01
 Cartesian forces (fcart) [Ha/bohr]; max,rms= 1.62366E+00 4.99454E-01 (free atoms)
 -3.30595377050137E-01  2.99173449052521E-01  6.95624575047992E-01
  3.01952652920753E-01  2.97198173039945E-02 -6.89046945584675E-01
 -1.70864547229699E-01 -6.14104079329995E-01 -4.56852572170428E-01
 -2.99884868255360E-02 -1.36148379472596E-01  1.04713639749609E+00
  3.84145258801691E-02  6.44356353962246E-02  1.62365526642826E+00
  1.96387789687924E-01  3.16060561539144E-01 -7.79407376792847E-01
 -2.30317562088220E-01 -5.65046861745067E-02 -5.59304642646393E-01
  1.69361382674251E-01 -4.00269359426030E-01 -2.89729948829662E-01
  3.84334966126511E-02  5.03223943447300E-01 -4.42842309228567E-01
  1.72161254178443E-02 -5.58690233605711E-03 -1.49232443719773E-01
 Reduced forces (fred)
  2.86983234909683E+00 -2.59706487653512E+00 -2.78249830019197E+01
 -2.62119058947447E+00 -2.57991790052515E-01  2.75618778233870E+01
  1.48324096159157E+00  5.33091469184782E+00  1.82741028868171E+01
  2.60324056435113E-01  1.18187685252571E+00 -4.18854558998438E+01
 -3.33468816260572E-01 -5.59352863747546E-01 -6.49462106571303E+01
 -1.70480312472293E+00 -2.74365852260900E+00  3.11762950717139E+01
  1.99934069297542E+00  4.90505879743658E-01  2.23721857058557E+01
 -1.47019229071864E+00  3.47465825530548E+00  1.15891979531865E+01
 -3.33633497395101E-01 -4.36838640827732E+00  1.77136923691427E+01
 -1.49449741527223E-01  4.84987817988446E-02  5.96929774879093E+00
 Total energy (etotal) [Ha]= -7.05000756574221E+02

--- Iteration: ( 2/10) Internal Cycle: (1/1)
--------------------------------------------------------------------------------

---SELF-CONSISTENT-FIELD CONVERGENCE--------------------------------------------

     iter   Etot(hartree)      deltaE(h)  residm     vres2
 ETOT  1   1610.3292719636     1.610E+03 5.167E+00 1.219E+09
 ETOT  2   2429.0117072669     8.187E+02 7.214E+01 6.765E+09
 ETOT  3   438.78271603240    -1.990E+03 9.363E+02 1.897E+09
 ETOT  4   2943.8781629537     2.505E+03 1.252E+02 3.685E+09
 ETOT  5   3093.9615875124     1.501E+02 9.017E+00 1.842E+09
 ETOT  6  -17.630253783068    -3.112E+03 1.644E+01 6.662E+07
 ETOT  7   931.46463826785     9.491E+02 2.194E+01 1.035E+09
 ETOT  8  -244.02395726572    -1.175E+03 5.387E+00 2.205E+08
 ETOT  9  -421.29543493632    -1.773E+02 1.938E+00 1.072E+08
 ETOT 10  -493.46707628515    -7.217E+01 2.596E+00 5.917E+07

 Cartesian components of stress tensor (hartree/bohr^3)
  sigma(1 1)= -8.87599645E-02  sigma(3 2)= -6.17117170E-04
  sigma(2 2)= -9.19637978E-02  sigma(3 1)= -2.07674631E-03
  sigma(3 3)= -1.10402625E-02  sigma(2 1)=  3.52141369E-04


 scprqt:  WARNING -
  nstep=   10 was not enough SCF cycles to converge;
  maximum energy difference=  7.217E+01 exceeds toldfe=  1.000E-02

 Integrated electronic density in atomic spheres:
 ------------------------------------------------
 Atom  Sphere_radius  Integrated_density
    1        2.00000          8.10998090
    2        2.00000          2.12229418
    3        2.00000          4.28955661
    4        2.00000          7.04955143
    5        2.00000          1.71978782
    6        2.00000          1.96355625
    7        2.00000         24.31175484
    8        2.00000         18.51753158
    9        2.00000         18.52921083
   10        2.00000         21.80670750

---OUTPUT-----------------------------------------------------------------------

 Cartesian coordinates (xcart) [bohr]
  3.94526176659252E+00 -3.73398305514033E+00 -2.58110611636507E+01
  1.17579741932059E+00  7.14641672062132E+00  1.01291534729736E+02
  7.53703916636115E+01 -2.53674731080281E-01  5.66397665887772E+00
  6.39730640795249E+00 -9.35542876123097E-01  1.28757067401065E+01
  1.39603606165702E-01  2.70118994245536E+00  2.28287986239692E+01
  7.21623502928469E+00  3.68003234596921E+00  4.28757371099605E+00
 -6.99291587835327E+00 -1.05284672482201E-01 -6.99278090638487E+01
  1.05668685902019E+01 -2.28342134239832E+00 -5.01328918591685E+00
  1.06728184486902E+01  2.32169655187679E+00 -4.99823965577239E+00
 -5.12226705346631E+00 -1.50628883698445E-01  4.76259086055036E+01
 Reduced coordinates (xred)
  4.54481357316436E-01 -4.30142735132745E-01 -6.45276529091267E-01
  1.35448048488686E-01  8.23244023663869E-01  2.53228836824339E+00
  8.68242462257067E+00 -2.92225061146762E-02  1.41599416471943E-01
  7.36948945713816E-01 -1.07771504483815E-01  3.21892668502661E-01
  1.60818825644758E-02  3.11168318870998E-01  5.70719965599231E-01
  8.31286866335440E-01  4.23927788449130E-01  1.07189342774901E-01
 -8.05561224582213E-01 -1.21284527327206E-02 -1.74819522659622E+00
  1.21726898329669E+00 -2.63042731360971E-01 -1.25332229647921E-01
  1.22947406329949E+00  2.67451911330383E-01 -1.24955991394310E-01
 -5.90068548229001E-01 -1.73519587709018E-02  1.19064771513759E+00
 Cartesian forces (fcart) [Ha/bohr]; max,rms= 8.89319E+00 2.54567E+00 (free atoms)
 -1.38100976629688E-01 -1.23763994024706E+00 -1.05698487388628E+00
  2.60114962972077E-01 -1.00831089081002E-01 -4.60992651198522E+00
  5.67495074051358E-01 -1.14332389491798E-01  2.77552392894327E+00
  2.64569358179249E-01  4.92622482236272E-01 -2.78903029269999E+00
 -6.31921720751524E-01  1.91623655764706E-01  1.40151278855493E+00
 -7.15346870408547E-03  7.92680980968721E-02  3.08503444392803E+00
  1.81598866975585E-01  1.24493552838582E-01 -4.20957235630402E+00
 -6.48889099504286E-01  4.39253792331334E+00 -1.72906280087900E+00
  4.12995405953909E-01 -4.37704386645658E+00 -1.76068756385203E+00
 -2.60708402542594E-01  5.49301573026672E-01  8.89319323818032E+00
 Reduced forces (fred)
  1.19882695792700E+00  1.07437047932967E+01  4.22793949554513E+01
 -2.25800597056800E+00  8.75294518094360E-01  1.84397060479409E+02
 -4.92631123882503E+00  9.92496606700396E-01 -1.11020957157731E+02
 -2.29667368448242E+00 -4.27635724379663E+00  1.11561211707999E+02
  5.48558607349983E+00 -1.66344663096226E+00 -5.60605115421971E+01
  6.20978311264251E-02 -6.88110505959327E-01 -1.23401377757121E+02
 -1.57642344444166E+00 -1.08070363348116E+00  1.68382894252161E+02
  5.63287649497681E+00 -3.81307432046984E+01  6.91625120351599E+01
 -3.58513052000469E+00  3.79962423959363E+01  7.04275025540813E+01
  2.26315750079175E+00 -4.76837709512993E+00 -3.55727729527213E+02
 Total energy (etotal) [Ha]= -4.93467076285150E+02

 Difference of energy with previous step (new-old):
           Absolute (Ha)= 2.11534E+02
           Relative     = 3.53007E-01

--- Iteration: ( 3/10) Internal Cycle: (1/1)
--------------------------------------------------------------------------------

---SELF-CONSISTENT-FIELD CONVERGENCE--------------------------------------------

     iter   Etot(hartree)      deltaE(h)  residm     vres2
 ETOT  1   3211.5821135572     3.212E+03 3.235E+01 2.223E+09
 ETOT  2   6309.5736958898     3.098E+03 3.251E+01 9.511E+09
 ETOT  3   1286.1677186677    -5.023E+03 5.635E+02 5.581E+08
 ETOT  4   1433.6267095745     1.475E+02 1.972E+02 1.751E+09
 ETOT  5   2311.5452397948     8.779E+02 1.159E+02 2.044E+09
 ETOT  6  -149.95088899642    -2.461E+03 1.186E+02 2.421E+08
 ETOT  7  -14.319059834544     1.356E+02 1.468E+01 3.350E+08
 ETOT  8   342.89672432469     3.572E+02 6.892E+00 4.433E+08
 ETOT  9   553.74511006106     2.108E+02 4.449E+00 4.558E+08
 ETOT 10   765.35571900205     2.116E+02 2.031E+00 4.958E+08

 Cartesian components of stress tensor (hartree/bohr^3)
  sigma(1 1)= -3.94134179E-01  sigma(3 2)=  3.96380123E-03
  sigma(2 2)= -4.46770154E-01  sigma(3 1)= -1.29424694E-02
  sigma(3 3)=  9.39186559E-02  sigma(2 1)=  6.27410217E-03


 scprqt:  WARNING -
  nstep=   10 was not enough SCF cycles to converge;
  maximum energy difference=  2.116E+02 exceeds toldfe=  1.000E-02

 Integrated electronic density in atomic spheres:
 ------------------------------------------------
 Atom  Sphere_radius  Integrated_density
    1        2.00000         40.07601398
    2        2.00000          0.00138435
    3        2.00000         39.00702899
    4        2.00000          0.00056840
    5        2.00000          0.02361066
    6        2.00000          1.33151031
    7        2.00000          7.82641603
    8        2.00000         46.88127683
    9        2.00000         42.39953968
   10        2.00000          6.09854024

---OUTPUT-----------------------------------------------------------------------

 Cartesian coordinates (xcart) [bohr]
  3.07159030287380E+00 -6.60361800688002E+00  4.74143109622806E+01
  5.79404977443569E+00  6.65426484905937E+00 -4.13974708589065E+01
  8.15555554815954E+01 -1.08576338519931E+00  7.74573387386357E+00
  7.91288508879197E+00  1.76455716525725E-01  5.92439306693449E+01
 -3.33421896210698E+00  3.37089307942266E+00  4.39503771809140E+01
  7.76896283806904E+00  4.47399751838536E+00  6.67020914425642E+00
 -2.36688833066405E+01  1.60755060813573E+00  3.30475050061121E+01
  9.88348729822811E+00  1.76154311590711E+00 -7.20888839897865E+01
  1.10236816426977E+01 -1.75314131975884E+00 -7.19032615077939E+01
  3.36198984205577E+00 -2.15382175597784E-01  7.61406495197153E+01
 Reduced coordinates (xred)
  3.53837238834416E-01 -7.60715372647685E-01  1.18535777405702E+00
  6.67455738461396E-01  7.66549724571395E-01 -1.03493677147266E+00
  9.39493543009808E+00 -1.25076419822978E-01  1.93643346846589E-01
  9.11538693299232E-01  2.03271261318917E-02  1.48109826673362E+00
 -3.84091208426295E-01  3.88315947772401E-01  1.09875942952285E+00
  8.94959316891190E-01  5.15390000735573E-01  1.66755228606410E-01
 -2.72657857647228E+00  1.85184615258470E-01  8.26187625152803E-01
  1.13854567530966E+00  2.02924052611178E-01 -1.80222209974466E+00
  1.26989236506978E+00 -2.01956192949825E-01 -1.79758153769485E+00
  3.87290323709309E-01 -2.48113279418699E-02  1.90351623799288E+00
 Cartesian forces (fcart) [Ha/bohr]; max,rms= 9.07398E+01 2.85847E+01 (free atoms)
 -9.07398317690482E+01  1.92620896860269E+01 -5.47383927558109E+00
  5.64221344736937E+00 -3.90684836449033E+00  3.72983190847034E+01
 -2.73617659280420E+00 -4.26379049943691E+01  2.00332121587174E+00
  6.87395372705818E-01  3.11320557197786E-01 -1.18523665791682E+01
 -2.22222866876809E+00 -1.41600846207292E+00  2.54843002325700E+01
  7.04930037519924E+00 -9.56533443923661E-01  1.60911383503018E+01
 -2.48111316147394E+00  4.49094150636830E+00 -1.23308984248833E+01
  7.73363959787237E+01  3.85916954157345E+01 -5.23360250139918E+01
  8.69659823966305E+00 -1.44046239370706E+01 -1.98112727201114E+01
 -1.23255322156674E+00  6.65872036599179E-01  2.09273231302890E+01
 Reduced forces (fred)
  7.87694331620754E+02 -1.67210348146462E+02  2.18953571023244E+02
 -4.89789264939241E+01  3.39145692824677E+01 -1.49193276338813E+03
  2.37522017668147E+01  3.70131125675119E+02 -8.01328486348697E+01
 -5.96714175138467E+00 -2.70251149292254E+00  4.74094663166730E+02
  1.92907226278421E+01  1.22920862575626E+01 -1.01937200930280E+03
 -6.11935666970296E+01  8.30347552001252E+00 -6.43645534012072E+02
  2.15380471321230E+01 -3.89849650284820E+01  4.93235936995332E+02
 -6.71341786212105E+02 -3.35006789564908E+02  2.09344100055967E+03
 -7.54934299988670E+01  1.25043659472923E+02  7.92450908804457E+02
  1.06995480057765E+01 -5.78030197531015E+00 -8.37092925211560E+02
 Total energy (etotal) [Ha]=  7.65355719002052E+02

 Difference of energy with previous step (new-old):
           Absolute (Ha)= 1.25882E+03
           Relative     = 2.00000E+00

--- Iteration: ( 4/10) Internal Cycle: (1/1)
--------------------------------------------------------------------------------

---SELF-CONSISTENT-FIELD CONVERGENCE--------------------------------------------

     iter   Etot(hartree)      deltaE(h)  residm     vres2
 ETOT  1   1573.3801441245     1.573E+03 4.544E+02 2.462E+09
 ETOT  2   4800.7367776886     3.227E+03 6.085E+01 7.959E+09
 ETOT  3   1223.1474387232    -3.578E+03 9.487E+01 6.954E+08
 ETOT  4   850.57954997175    -3.726E+02 8.872E+01 8.363E+08
 ETOT  5   2197.8628164732     1.347E+03 4.350E+01 1.653E+09
 ETOT  6   3293.2366593892     1.095E+03 3.625E+00 2.168E+09
 ETOT  7   3346.3797631880     5.314E+01 1.992E+00 1.857E+09
 ETOT  8   3773.4825412282     4.271E+02 2.515E+00 2.193E+09
 ETOT  9   862.68164681836    -2.911E+03 1.806E+01 4.410E+08
 ETOT 10  -2.0610005431884    -8.647E+02 2.660E+01 2.957E+08

 Cartesian components of stress tensor (hartree/bohr^3)
  sigma(1 1)= -1.92002677E-01  sigma(3 2)=  5.33261387E-04
  sigma(2 2)= -1.92144989E-01  sigma(3 1)=  4.17556392E-03
  sigma(3 3)=  1.72631938E-01  sigma(2 1)=  6.95931736E-04


 scprqt:  WARNING -
  nstep=   10 was not enough SCF cycles to converge;
  maximum energy difference=  8.647E+02 exceeds toldfe=  1.000E-02

 Integrated electronic density in atomic spheres:
 ------------------------------------------------
 Atom  Sphere_radius  Integrated_density
    1        2.00000         14.12846394
    2        2.00000         14.35178453
    3        2.00000          8.87896192
    4        2.00000          0.12242230
    5        2.00000          0.00988793
    6        2.00000          0.27304612
    7        2.00000          7.64698413
    8        2.00000         14.90126031
    9        2.00000          2.82291363
   10        2.00000          7.38691382

---OUTPUT-----------------------------------------------------------------------

 Cartesian coordinates (xcart) [bohr]
  4.95094654098213E+01  4.04444178980256E+00  1.50184627661813E+01
  9.53227833070688E+00  2.46569460868797E+00  1.92904183594285E+01
  1.29596383515552E+02  2.32282716733881E+01 -2.16680114958937E+01
  7.65224479483979E+00  3.01533085340031E-02  7.00986276329950E+01
 -3.14518555483246E+00  3.44044712855447E+00  4.91837011402653E+00
  3.15632248517506E+00  7.13820564228704E+00 -1.78501931815482E+01
 -2.59358887752183E+01  4.97646235933878E+00  4.10718705865255E+01
 -3.71940097315790E+01 -8.22746666546097E-01 -7.95383296094411E+01
 -3.03674487045968E+01 -3.72577556200430E+01 -7.20201006021324E+01
  5.64938230131231E-01  1.14362577599621E+00  1.29501985429858E+02
 Reduced coordinates (xred)
  5.70332980944398E+00  4.65906574256124E-01  3.75461569154533E-01
  1.09808754155226E+00  2.84040020353881E-01  4.82260458985713E-01
  1.49290829780150E+01  2.67582154563958E+00 -5.41700287397342E-01
  8.81513776937585E-01  3.47356332757386E-03  1.75246569082488E+00
 -3.62315173121424E-01  3.96328348603179E-01  1.22959252850663E-01
  3.63598111369350E-01  8.22298134076011E-01 -4.46254829538704E-01
 -2.98773025242124E+00  5.73272320447283E-01  1.02679676466314E+00
 -4.28462926591777E+00 -9.47777470447536E-02 -1.98845824023603E+00
 -3.49823158056824E+00 -4.29197258548094E+00 -1.80050251505331E+00
  6.50790514850280E-02  1.31741979540619E-01  3.23754963574646E+00
 Cartesian forces (fcart) [Ha/bohr]; max,rms= 4.09574E+01 1.10000E+01 (free atoms)
 -3.60359493564676E+00  1.99874713319188E+00 -4.09573879870872E+01
  3.61958840561317E+00 -3.37991248620050E+00  4.96836867656429E+00
  2.04076732537653E-01  1.90655483395581E+00  4.45085242011752E-01
 -8.06737430638057E-02  6.27634686022066E-01 -3.14280511245701E+00
  2.12967536132681E-01 -1.35590931700433E+00 -6.33105156030328E-01
 -4.64630730082890E-01  6.00366382911921E-01 -7.71294438630986E+00
  6.95320827243670E+00 -3.27296119646148E+00 -5.77630069933090E+00
 -5.37243501873691E+00 -2.75576593330163E-01 -4.68637531967277E+00
 -3.57745231315832E-01  1.66317326150537E+00  3.06564208225003E+01
 -1.11076128787401E+00  1.48788329540943E+00  2.68390439198118E+01
 Reduced forces (fred)
  3.12820869173624E+01 -1.73507241138121E+01  1.63829551948349E+03
 -3.14209230314468E+01  2.93403443102093E+01 -1.98734747062572E+02
 -1.77154929981286E+00 -1.65504212026036E+01 -1.78034096804701E+01
  7.00312628788285E-01 -5.44837118242035E+00  1.25712204498280E+02
 -1.84872858766058E+00  1.17703775990512E+01  2.53242062412131E+01
  4.03336644170355E+00 -5.21166049678180E+00  3.08517775452394E+02
 -6.03594103713685E+01  2.84119215542429E+01  2.31052027973236E+02
  4.66370339106514E+01  2.39222529138048E+00  1.87455012786911E+02
  3.10551480400647E+00 -1.44376744484758E+01 -1.22625683290001E+03
  9.64229658777668E+00 -1.29160173107902E+01 -1.07356175679247E+03
 Total energy (etotal) [Ha]= -2.06100054318840E+00

 Difference of energy with previous step (new-old):
           Absolute (Ha)=-7.67417E+02
           Relative     =-2.00000E+00

--- Iteration: ( 5/10) Internal Cycle: (1/1)
--------------------------------------------------------------------------------

---SELF-CONSISTENT-FIELD CONVERGENCE--------------------------------------------

     iter   Etot(hartree)      deltaE(h)  residm     vres2
 ETOT  1   537.81742138468     5.378E+02 1.920E+01 1.244E+09
 ETOT  2   4444.0554045787     3.906E+03 2.694E+01 5.424E+09
 ETOT  3   3244.6428874857    -1.199E+03 5.421E+01 2.068E+09
 ETOT  4   2048.5529150183    -1.196E+03 1.662E+01 1.145E+09
 ETOT  5   1309.3254603316    -7.392E+02 8.934E+00 7.684E+08
 ETOT  6   1613.5916591832     3.043E+02 4.922E+00 9.336E+08
 ETOT  7   818.89588388481    -7.947E+02 4.201E+02 8.935E+08
 ETOT  8   1580.1768177954     7.613E+02 5.888E+02 3.321E+09
 ETOT  9   1423.4361303397    -1.567E+02 8.923E+01 5.010E+09
 ETOT 10   1258.0305104904    -1.654E+02 1.179E+02 4.599E+09

 Cartesian components of stress tensor (hartree/bohr^3)
  sigma(1 1)= -5.47114489E-01  sigma(3 2)=  1.67944147E-03
  sigma(2 2)= -5.41515970E-01  sigma(3 1)= -1.69703776E-03
  sigma(3 3)=  5.47511406E-01  sigma(2 1)= -2.33169088E-03


 scprqt:  WARNING -
  nstep=   10 was not enough SCF cycles to converge;
  maximum energy difference=  1.654E+02 exceeds toldfe=  1.000E-02

 Integrated electronic density in atomic spheres:
 ------------------------------------------------
 Atom  Sphere_radius  Integrated_density
    1        2.00000          0.00057015
    2        2.00000          0.00031741
    3        2.00000          0.00058887
    4        2.00000          0.00219721
    5        2.00000          0.00316370
    6        2.00000         10.91456779
    7        2.00000          0.00728192
    8        2.00000          4.61483793
    9        2.00000          5.33737767
   10        2.00000         20.29170655

---OUTPUT-----------------------------------------------------------------------

 Cartesian coordinates (xcart) [bohr]
  4.82262510497281E+01  3.23530872468590E+00 -2.15471950229055E+01
  1.18327864861955E+01 -7.98718607917221E-01  1.45181487166399E+01
  1.29688120273552E+02  2.60025230379881E+01 -2.64352264647133E+01
  8.34827827181199E+00 -4.59942463753202E-01  8.51331773344753E+01
 -2.09980418448102E+00 -1.71771639328928E+00  5.03141200430558E+00
  4.67782200021736E+00  6.58909126575013E+00 -1.04214447136020E+01
 -2.66078787067235E+01  6.38055424719374E+00 -3.20582782941362E+00
 -3.93852766171200E+01  1.61416279101906E+00 -9.51910953137608E+01
 -3.03184047999493E+01 -3.22844545752455E+01 -7.22497131721123E+00
 -9.92793773231139E-01 -1.74008026431675E-01  1.48166122606186E+02
 Reduced coordinates (xred)
  5.55550767783247E+00  3.72697069934326E-01 -5.38679875572637E-01
  1.36309861835263E+00 -9.20097926363032E-02  3.62953717915997E-01
  1.49396507549479E+01  2.99540630333472E+00 -6.60880661617831E-01
  9.61694575593493E-01 -5.29838797983138E-02  2.12832943336188E+00
 -2.41890630412061E-01 -1.97875356336890E-01  1.25785300107640E-01
  5.38869919848097E-01  7.59041939193407E-01 -2.60536117840050E-01
 -3.06514131263518E+00  7.35019151137423E-01 -8.01456957353406E-02
 -4.53705610279237E+00  1.85946317277101E-01 -2.37977738284402E+00
 -3.49258188184837E+00 -3.71906443821370E+00 -1.80624282930281E-01
 -1.14366622112149E-01 -2.00451601732185E-02  3.70415306515464E+00
 Cartesian forces (fcart) [Ha/bohr]; max,rms= 8.01252E+01 2.17834E+01 (free atoms)
 -1.83217290575795E-01  7.58773673771541E-01  2.82245524268476E+01
  2.85136500680518E-01 -1.25854720056504E+00  3.69006843063464E+00
 -2.85300426924207E+00  6.87914286888505E-01 -9.05736152892673E+00
  4.79412484527426E+00  4.14463175267421E+00 -2.15315105179064E+01
 -6.81408805910485E+00 -4.20359303382323E+00 -2.23031415024989E+01
  1.75013866517978E+00  1.08529562355187E+00  2.58689188672797E+00
 -2.53804068919635E-01  3.36089096471158E-01 -8.01252350227063E+01
 -1.05333052095625E+00  5.94893270312539E-01  1.50755952741208E+00
  1.96804356300866E+00 -9.13908360936041E-01  2.48919942986878E+01
  2.36000063465539E+00 -1.23154910834551E+00  7.21161820017283E+01
 Reduced forces (fred)
  1.59047265603036E+00 -6.58676250727599E+00 -1.12898209707390E+03
 -2.47521293510744E+00  1.09251965386650E+01 -1.47602737225386E+02
  2.47663594604366E+01 -5.97164634162174E+00  3.62294461157069E+02
 -4.16168389568568E+01 -3.59787193186143E+01  8.61260420716255E+02
  5.91517356234774E+01  3.64905504080127E+01  8.92125660099957E+02
 -1.51926037246926E+01 -9.42123424892905E+00 -1.03475675469119E+02
  2.20322236147756E+00 -2.91752222864683E+00  3.20500940090825E+03
  9.14375158631705E+00 -5.16414950092909E+00 -6.03023810964830E+01
 -1.70841925617656E+01  7.93345569961359E+00 -9.95679771947510E+02
 -2.04866935093165E+01  1.06908314997257E+01 -2.88464728006913E+03
 Total energy (etotal) [Ha]=  1.25803051049036E+03

 Difference of energy with previous step (new-old):
           Absolute (Ha)= 1.26009E+03
           Relative     = 2.00000E+00

--- Iteration: ( 6/10) Internal Cycle: (1/1)
--------------------------------------------------------------------------------

---SELF-CONSISTENT-FIELD CONVERGENCE--------------------------------------------

     iter   Etot(hartree)      deltaE(h)  residm     vres2
 ETOT  1   2502.5259370655     2.503E+03 3.662E+02 4.011E+09
 ETOT  2   2967.0006256903     4.645E+02 4.185E+01 6.923E+09
 ETOT  3   158.75051939912    -2.808E+03 4.904E+02 2.904E+08
 ETOT  4   963.41691136004     8.047E+02 9.236E+01 7.919E+08
 ETOT  5   1246.4113409425     2.830E+02 3.770E+02 2.473E+09
 ETOT  6   35.573999797162    -1.211E+03 5.314E+01 3.429E+08
 ETOT  7   54.933188105388     1.936E+01 6.519E+00 3.296E+08
 ETOT  8   363.61216824506     3.087E+02 9.169E+00 3.761E+08
 ETOT  9   820.52522508208     4.569E+02 2.442E+01 5.722E+08
 ETOT 10   797.93459641547    -2.259E+01 4.408E+00 4.851E+08

 Cartesian components of stress tensor (hartree/bohr^3)
  sigma(1 1)= -4.13438937E-01  sigma(3 2)= -4.24622014E-04
  sigma(2 2)= -4.02740366E-01  sigma(3 1)=  1.80509843E-03
  sigma(3 3)=  1.85188422E-02  sigma(2 1)= -7.35284387E-04


 scprqt:  WARNING -
  nstep=   10 was not enough SCF cycles to converge;
  maximum energy difference=  2.259E+01 exceeds toldfe=  1.000E-02

 Integrated electronic density in atomic spheres:
 ------------------------------------------------
 Atom  Sphere_radius  Integrated_density
    1        2.00000          0.00542689
    2        2.00000          7.88277118
    3        2.00000          0.00351720
    4        2.00000          0.02079605
    5        2.00000         12.26391054
    6        2.00000          0.00730614
    7        2.00000         20.50596954
    8        2.00000          0.10420937
    9        2.00000         18.33000269
   10        2.00000         51.58371254

---OUTPUT-----------------------------------------------------------------------

 Cartesian coordinates (xcart) [bohr]
  4.88515438903744E+01  3.82767896317421E+00 -7.31110552812953E+01
  1.26912071188397E+01 -1.39640140911266E+00  7.35711240322228E+01
  1.28432372620968E+02  2.66866117441004E+01 -4.30432101599385E+01
  1.37955959958176E+01  3.52475549128318E+00  6.66601747915246E+01
 -7.48077856512704E+00 -5.80920877526563E+00 -1.68031723774549E+01
  1.58388813104826E+00  3.84091852072118E+00 -1.10394418051213E+01
 -2.61015632619832E+01  6.82103942703489E+00  6.74474076276932E+01
 -4.17444242880476E+01  3.72583700370241E+00 -1.47862739329623E+02
 -3.21003806807517E+01 -3.18947776041837E+01  3.54074234334819E+01
  5.44163903886134E+00 -9.39653361454211E-01  1.37596589068510E+02
 Reduced coordinates (xred)
  5.62753938466206E+00  4.40936199794283E-01 -1.82777638203238E+00
  1.46198589056766E+00 -1.60860912486483E-01  1.83927810080557E+00
  1.47949926989411E+01  3.07421110313570E+00 -1.07608025399846E+00
  1.58920790662354E+00  4.06040398498201E-01  1.66650436978811E+00
 -8.61761423500949E-01 -6.69202006182106E-01 -4.20079309436372E-01
  1.82458774657665E-01  4.42461353875355E-01 -2.75986045128033E-01
 -3.00681541585835E+00  7.85761614947342E-01  1.68618519069233E+00
 -4.80882226154820E+00  4.29204336432404E-01 -3.69656848324057E+00
 -3.69785972269280E+00 -3.67417491523635E+00  8.85185585837049E-01
  6.26859164922742E-01 -1.08245019059788E-01  3.43991472671276E+00
 Cartesian forces (fcart) [Ha/bohr]; max,rms= 5.81511E+01 1.45676E+01 (free atoms)
  3.99981361055252E-01  1.83226744208214E-01  1.09616662648980E+01
  6.04532641003534E+00 -4.46251579790303E+00 -1.29782830212122E+01
  3.11742092967378E-01  4.04619747638106E-01 -3.86055389678782E+00
  9.53981921799963E-01  1.37220197431733E-01 -1.73397776525844E+01
 -2.82167178003394E-01  7.07497904108016E-01  1.25549643750548E+01
 -1.06511574559261E+00  4.22905477888992E-01 -1.36207709354717E+01
  4.23317791178216E-03 -1.16823479527801E+00  1.94959165590714E+00
  8.49499338759695E-02  3.60839388506649E-01  5.81510979375853E+01
 -5.69992625235609E+00  4.37689828287472E+00  7.36904030820581E+00
 -7.53005721693581E-01 -9.62457149475394E-01 -4.31869750355949E+01
 Reduced forces (fred)
 -3.47215819904843E+00 -1.59055472112267E+00 -4.38466650595921E+02
 -5.24782695002347E+01  3.87382071384366E+01  5.19131320848489E+02
 -2.70617076063122E+00 -3.51242310529687E+00  1.54422155871513E+02
 -8.28132626676112E+00 -1.19118108986539E+00  6.93591106103376E+02
  2.44943683881186E+00 -6.14164780598087E+00 -5.02198575002191E+02
  9.24605676434036E+00 -3.67115787245876E+00  5.44830837418869E+02
 -3.67473708165986E-02  1.01412126108493E+01 -7.79836662362854E+01
 -7.37433385990516E-01 -3.13237456374852E+00 -2.32604391750341E+03
  4.94799198114527E+01 -3.79949786139789E+01 -2.94761612328233E+02
  6.53669206887764E+00  8.35489802316600E+00  1.72747900142379E+03
 Total energy (etotal) [Ha]=  7.97934596415468E+02

 Difference of energy with previous step (new-old):
           Absolute (Ha)=-4.60096E+02
           Relative     =-4.47572E-01

--- Iteration: ( 7/10) Internal Cycle: (1/1)
--------------------------------------------------------------------------------

---SELF-CONSISTENT-FIELD CONVERGENCE--------------------------------------------

     iter   Etot(hartree)      deltaE(h)  residm     vres2
 ETOT  1   717.63752532317     7.176E+02 4.991E+02 1.648E+09
 ETOT  2   1802.2156163406     1.085E+03 3.075E+01 4.173E+09
 ETOT  3   123.31005772630    -1.679E+03 2.101E+02 2.837E+08
 ETOT  4   1719.4600609386     1.596E+03 4.461E+01 9.079E+08
 ETOT  5   1256.8859563649    -4.626E+02 3.777E+00 4.502E+08
 ETOT  6   292.56847105158    -9.643E+02 1.389E+01 3.072E+08
 ETOT  7   598.71519768980     3.061E+02 4.157E+01 9.880E+08
 ETOT  8   601.68176067937     2.967E+00 2.275E+02 1.499E+09
 ETOT  9   1464.8395581605     8.632E+02 3.714E+01 1.480E+09
 ETOT 10  -556.46239652763    -2.021E+03 1.249E+01 2.663E+07

 Cartesian components of stress tensor (hartree/bohr^3)
  sigma(1 1)= -2.23137766E-02  sigma(3 2)=  3.60739553E-04
  sigma(2 2)= -2.01394892E-02  sigma(3 1)=  4.63231333E-04
  sigma(3 3)=  1.67295107E-02  sigma(2 1)=  7.34864484E-04


 scprqt:  WARNING -
  nstep=   10 was not enough SCF cycles to converge;
  maximum energy difference=  2.021E+03 exceeds toldfe=  1.000E-02

 Integrated electronic density in atomic spheres:
 ------------------------------------------------
 Atom  Sphere_radius  Integrated_density
    1        2.00000          9.32629411
    2        2.00000          3.64757832
    3        2.00000          6.45245916
    4        2.00000          2.39994324
    5        2.00000          1.99644975
    6        2.00000          2.33427920
    7        2.00000         15.00801732
    8        2.00000          8.93705380
    9        2.00000         17.05288997
   10        2.00000          9.61859373

---OUTPUT-----------------------------------------------------------------------

 Cartesian coordinates (xcart) [bohr]
  4.86755536807097E+01  3.09637202318689E+00 -8.06092411358759E+00
  8.13438764266416E+00 -1.17654429327073E+00  4.21236756324420E+01
  1.28840153487326E+02  2.75439964000199E+01 -4.83088457973130E+01
  1.39623301499219E+01  1.99719024521248E+00  7.81752856195395E+01
 -6.99994634009216E+00 -6.34535203962240E+00 -1.75639582961033E+01
  3.47357814478018E+00  5.30233329948514E-01  1.22614874117871E+01
 -2.75482679396480E+01  1.21544252895295E+01  1.02022132043151E+02
 -4.18851478004538E+01  3.74871490098340E+00 -1.64122870006437E+02
 -2.90534994613061E+01 -3.22037585411042E+01 -2.22149711201249E+01
  5.76995843609773E+00 -9.58477314883409E-01  1.14512088626647E+02
 Reduced coordinates (xred)
  5.60726588341048E+00  3.56692012624054E-01 -2.01523102839690E-01
  9.37055068964170E-01 -1.35534085944927E-01  1.05309189081105E+00
  1.48419677319287E+01  3.17297903419269E+00 -1.20772114493282E+00
  1.60841514030065E+00  2.30069837481854E-01  1.95438214048849E+00
 -8.06371110968132E-01 -7.30963971019077E-01 -4.39098957402583E-01
  4.00144934197330E-01  6.10811595646155E-02  3.06537185294677E-01
 -3.17347110170123E+00  1.40015036511952E+00  2.55055330107877E+00
 -4.82503315367867E+00  4.31839795984633E-01 -4.10307175016093E+00
 -3.34686889011451E+00 -3.70976851685376E+00 -5.55374278003122E-01
  6.64680494435735E-01 -1.10413477431044E-01  2.86280221566617E+00
 Cartesian forces (fcart) [Ha/bohr]; max,rms= 1.08008E+01 3.10422E+00 (free atoms)
 -2.44076012213744E+00  2.35657089104014E+00 -2.39321719774974E+00
 -2.66086323012479E-02 -6.74822656119680E-02  1.28894382524833E+00
  2.19024823808495E+00 -1.21782648712314E+00 -2.92754910062152E+00
 -2.05493635993494E-01  3.63523379581495E-02 -1.70152702722159E+00
  1.07161128124951E+00 -8.61031364624607E-01  1.17026804311862E+00
 -1.13058929445090E-01  1.47361997088298E-01  4.27073946451638E+00
  2.54183522864296E+00  2.04569547400708E+00  9.52966110569098E+00
  1.17921341214113E-01 -2.63441927853313E-01  2.97910570142605E-01
 -2.86923459386886E+00 -1.47338043847460E+00 -1.08007690985967E+01
 -2.66460175445407E-01 -7.02818216406043E-01  1.26553941547264E+00
 Reduced forces (fred)
  2.11877504682507E+01 -2.04569205909412E+01  9.57286879099895E+01
  2.30984215280672E-01  5.85800051324372E-01 -5.15577530099334E+01
 -1.90131069051679E+01  1.05717081694186E+01  1.17101964024861E+02
  1.78384915533232E+00 -3.15567375347104E-01  6.80610810888638E+01
 -9.30244321027072E+00  7.47444107003329E+00 -4.68107217247448E+01
  9.81441954726941E-01 -1.27922002432410E+00 -1.70829578580655E+02
 -2.20651632528038E+01 -1.77582732707607E+01 -3.81186444227639E+02
 -1.02365157881147E+00  2.28688668730904E+00 -1.19164228057042E+01
  2.49072516624568E+01  1.27901209103103E+01  4.32030763943868E+02
  2.31308749100649E+00  6.10102437297758E+00 -5.06215766189057E+01
 Total energy (etotal) [Ha]= -5.56462396527631E+02

 Difference of energy with previous step (new-old):
           Absolute (Ha)=-1.35440E+03
           Relative     =-2.00000E+00

--- Iteration: ( 8/10) Internal Cycle: (1/1)
--------------------------------------------------------------------------------

---SELF-CONSISTENT-FIELD CONVERGENCE--------------------------------------------

     iter   Etot(hartree)      deltaE(h)  residm     vres2
 ETOT  1   1819.7026139829     1.820E+03 4.128E+00 1.514E+09
 ETOT  2   2396.8623567661     5.772E+02 1.592E+02 6.395E+09
 ETOT  3   55.029746625930    -2.342E+03 8.615E+02 1.468E+09
 ETOT  4   2181.2631090144     2.126E+03 1.322E+02 3.098E+09
 ETOT  5   2412.3021069669     2.310E+02 1.531E+01 2.195E+09
 ETOT  6   1747.1028270582    -6.652E+02 7.947E+00 1.532E+09
 ETOT  7   259.42490322181    -1.488E+03 6.785E+01 3.051E+08
 ETOT  8   785.75797853638     5.263E+02 1.089E+01 8.968E+08
 ETOT  9   1029.6719651582     2.439E+02 1.902E+00 1.057E+09
 ETOT 10   1386.2737010689     3.566E+02 7.123E+01 2.580E+09

 Cartesian components of stress tensor (hartree/bohr^3)
  sigma(1 1)= -5.92586596E-01  sigma(3 2)= -5.44727950E-04
  sigma(2 2)= -5.72751067E-01  sigma(3 1)= -7.62521525E-04
  sigma(3 3)=  6.12033684E-01  sigma(2 1)=  2.56882099E-03


 scprqt:  WARNING -
  nstep=   10 was not enough SCF cycles to converge;
  maximum energy difference=  3.566E+02 exceeds toldfe=  1.000E-02

 Integrated electronic density in atomic spheres:
 ------------------------------------------------
 Atom  Sphere_radius  Integrated_density
    1        2.00000          7.35855379
    2        2.00000          0.01079174
    3        2.00000          0.00155505
    4        2.00000          0.00952276
    5        2.00000          0.00785630
    6        2.00000          0.00696041
    7        2.00000          0.51610981
    8        2.00000          0.00190062
    9        2.00000         13.54584309
   10        2.00000          8.45078654

---OUTPUT-----------------------------------------------------------------------

 Cartesian coordinates (xcart) [bohr]
  4.13242943721659E+01  9.77146650292620E+00  3.76436170006137E+01
  9.20050399752085E+00 -2.49291437138739E+00  3.00287539753225E+01
  1.36854814374102E+02  2.30407851994856E+01 -2.46251459636196E+01
  1.34660388196813E+01  2.86402703947381E+00  5.89040848480903E+01
 -1.57460537811831E+00 -9.13494590472094E+00 -1.18892671173642E+01
  3.05356183687808E+00  1.91916905163181E-01 -1.56918240756168E+01
 -3.02619985331363E+01  1.69603314479323E+01  1.12278758644866E+02
 -4.20702543889678E+01  4.81470300220147E+00 -1.85423454390061E+02
 -3.16495800994757E+01 -3.38299858046893E+01 -7.89044330212024E+01
  5.02632499934942E+00 -3.79858401638489E+00  1.66502010098972E+02
 Reduced coordinates (xred)
  4.76042465811514E+00  1.12564124307969E+00  9.41090425015343E-01
  1.05986821462548E+00 -2.87175648717559E-01  7.50718849383062E-01
  1.57652306670010E+01  2.65422371204100E+00 -6.15628649090491E-01
  1.55124398899656E+00  3.29926624213645E-01  1.47260212120226E+00
 -1.81389431632834E-01 -1.05231613500149E+00 -2.97231677934105E-01
  3.51760418034983E-01  2.21082049077482E-02 -3.92295601890419E-01
 -3.48608406289009E+00  1.95377516449317E+00  2.80696896612164E+00
 -4.84635683220069E+00  5.54638167242820E-01 -4.63558635975152E+00
 -3.64592895810014E+00 -3.89710462223404E+00 -1.97261082553006E+00
  5.79016334825065E-01 -4.37584556306433E-01  4.16255025247429E+00
 Cartesian forces (fcart) [Ha/bohr]; max,rms= 1.09924E+02 2.98414E+01 (free atoms)
 -1.70062719638554E+00  1.91377389402649E+00 -1.09924396155161E+02
  1.04849981814340E+00 -5.91255994827283E+00  4.28328452707026E+01
 -4.44513465333096E+00  2.02167957667680E+00 -9.97494466464384E+00
  1.66493561382310E-01 -1.09479268601116E+00  7.50369439642733E-01
 -1.56689596273453E+00  2.25412580359502E+00  1.32691187066327E+01
 -1.61239552954493E-01 -3.86522900311515E-02  7.39537978128838E+00
  1.82378671635772E+00  1.98161009356261E+00  8.05810164277766E+01
  4.16688590341162E+00 -1.58346715599631E+00 -5.36336797917342E+01
  1.54693460946607E+00  1.96927958387968E+00 -2.15150962473214E+01
 -8.78703243355602E-01 -1.51099687142914E+00  5.02193872328172E+01
 Reduced forces (fred)
  1.47628045663836E+01 -1.66130884192651E+01  4.39697584620643E+03
 -9.10181722133926E+00  5.13257503989668E+01 -1.71331381082811E+03
  3.85873248986354E+01 -1.75497960692159E+01  3.98997786585753E+02
 -1.44529730764755E+00  9.50367634872567E+00 -3.00147775857093E+01
  1.36019104733059E+01 -1.95676152758476E+01 -5.30764748265310E+02
  1.39968831128736E+00  3.35532799302420E-01 -2.95815191251535E+02
 -1.58319277273581E+01 -1.72019609001983E+01 -3.22324065711106E+03
 -3.61719031503356E+01  1.37457616877728E+01  2.14534719166937E+03
 -1.34286299578530E+01 -1.70949222117427E+01  8.60603849892858E+02
  7.62784711492131E+00  1.31166616415020E+01 -2.00877548931269E+03
 Total energy (etotal) [Ha]=  1.38627370106895E+03

 Difference of energy with previous step (new-old):
           Absolute (Ha)= 1.94274E+03
           Relative     = 2.00000E+00

--- Iteration: ( 9/10) Internal Cycle: (1/1)
--------------------------------------------------------------------------------

---SELF-CONSISTENT-FIELD CONVERGENCE--------------------------------------------

     iter   Etot(hartree)      deltaE(h)  residm     vres2
 ETOT  1   1606.8799996779     1.607E+03 2.907E+02 3.629E+09
 ETOT  2   2025.9793346016     4.191E+02 2.443E+01 4.828E+09
 ETOT  3   1066.9067609135    -9.591E+02 5.296E+02 1.486E+09
 ETOT  4   1498.6403016290     4.317E+02 7.996E+01 1.222E+09
 ETOT  5   1274.9754236640    -2.237E+02 6.038E+01 1.931E+09
 ETOT  6  -281.73506857879    -1.557E+03 2.093E+02 3.531E+08
 ETOT  7   792.88575174996     1.075E+03 1.745E+01 7.848E+08
 ETOT  8   1288.0013239451     4.951E+02 1.413E+00 1.034E+09
 ETOT  9   1421.3758100654     1.334E+02 5.742E-01 1.138E+09
 ETOT 10   1489.3463572327     6.797E+01 1.270E+01 1.223E+09

 Cartesian components of stress tensor (hartree/bohr^3)
  sigma(1 1)= -6.69912510E-01  sigma(3 2)= -1.81272176E-04
  sigma(2 2)= -6.56260031E-01  sigma(3 1)= -5.91435377E-03
  sigma(3 3)=  5.59889843E-01  sigma(2 1)=  1.63137129E-03


 scprqt:  WARNING -
  nstep=   10 was not enough SCF cycles to converge;
  maximum energy difference=  6.797E+01 exceeds toldfe=  1.000E-02

 Integrated electronic density in atomic spheres:
 ------------------------------------------------
 Atom  Sphere_radius  Integrated_density
    1        2.00000          0.00444953
    2        2.00000          0.00131041
    3        2.00000         15.54239977
    4        2.00000          0.00569865
    5        2.00000          5.96407640
    6        2.00000         20.87269630
    7        2.00000         20.59929096
    8        2.00000          9.47002813
    9        2.00000         34.85814616
   10        2.00000          0.02243916

---OUTPUT-----------------------------------------------------------------------

 Cartesian coordinates (xcart) [bohr]
  4.39950113067148E+01  1.08216738664708E+01  4.30162270199579E+00
  1.01333367614569E+01 -6.80303120891022E+00  8.72628107420530E+01
  1.33026776187456E+02  2.46928396027929E+01 -8.80324742112754E+00
  1.36841205023356E+01  2.22404741980266E+00  3.91536676187619E+01
 -2.70140318537237E+00 -6.91754704992947E+00 -2.19622421771636E+01
  2.94408586361554E+00  4.41723378270558E-01 -1.00157743512050E+01
 -3.04350049136523E+01  1.86071896632803E+01  6.67623729119586E+01
 -3.83042074634942E+01  2.78846463155520E+00 -1.83476922710717E+02
 -3.46663781631482E+01 -3.41428686517059E+01 -8.91622709855822E+01
  5.69276310408829E+00 -3.32569165162688E+00  2.04763083671026E+02
 Reduced coordinates (xred)
  5.06808258532795E+00  1.24662172454967E+00  1.07540567549895E-01
  1.16732752297679E+00 -7.83687126636971E-01  2.18157026855133E+00
  1.53242530858280E+01  2.84453502013558E+00 -2.20081185528188E-01
  1.57636629139429E+00  2.56203048083432E-01  9.78841690469048E-01
 -3.11192883763290E-01 -7.96878980039797E-01 -5.49056054429091E-01
  3.39149141048698E-01  5.08851002523452E-02 -2.50394358780126E-01
 -3.50601383670310E+00  2.14348788859095E+00  1.66905932279896E+00
 -4.41252044321885E+00  3.21222079941388E-01 -4.58692306776793E+00
 -3.99345430872134E+00 -3.93314771123697E+00 -2.22905677463955E+00
  6.55787842605323E-01 -3.83108889921076E-01  5.11907709177565E+00
 Cartesian forces (fcart) [Ha/bohr]; max,rms= 7.53578E+01 2.17087E+01 (free atoms)
 -1.06919361581069E+00 -1.65079265572444E+00 -4.04705217213000E+01
  3.11150194318878E+00 -1.92735541774488E+00  1.35844887034583E+01
  9.94322691584367E+00 -1.06604495571348E+01  1.05947857407103E+01
 -3.23772320361870E-01  1.77662675957900E-01 -3.32561610290174E+01
  4.09690363823813E+00 -3.81830628948690E+00  1.63773591754661E+01
  1.20244794423817E+01 -6.43048435716701E-01  2.04055358062742E+00
  1.12389147313912E+01  2.86687638193611E+00 -3.74324790012319E+01
 -4.18935502794147E+00  4.49046693794181E+00  2.84849818627280E+01
 -3.22710934160654E+01  5.77870587686363E+00  7.53577795815822E+01
 -2.56161229086405E+00  5.38624048310825E+00 -3.52807868930230E+01
 Reduced forces (fred)
  9.28145594012946E+00  1.43302008858128E+01  1.61882086885200E+03
 -2.70103260684332E+01  1.67309869103598E+01 -5.43379548138330E+02
 -8.63151642110558E+01  9.25412305155756E+01 -4.23791429628412E+02
  2.81060275859732E+00 -1.54225415745534E+00  1.33024644116070E+03
 -3.55644011028176E+01  3.31459532377778E+01 -6.55094367018645E+02
 -1.04382101143427E+02  5.58217486076954E+00 -8.16221432250968E+01
 -9.75627710002603E+01 -2.48867804963110E+01  1.49729916004928E+03
  3.63669531265543E+01 -3.89808453948853E+01 -1.13939927450912E+03
  2.80138907726180E+02 -5.01637899758778E+01 -3.01431118326329E+03
  2.22368439745326E+01 -4.67568763857661E+01  1.41123147572092E+03
 Total energy (etotal) [Ha]=  1.48934635723265E+03

 Difference of energy with previous step (new-old):
           Absolute (Ha)= 1.03073E+02
           Relative     = 7.16873E-02

--- Iteration: (10/10) Internal Cycle: (1/1)
--------------------------------------------------------------------------------

---SELF-CONSISTENT-FIELD CONVERGENCE--------------------------------------------

     iter   Etot(hartree)      deltaE(h)  residm     vres2
 ETOT  1   1586.9200266669     1.587E+03 2.101E+02 3.758E+09
 ETOT  2   3694.8449449047     2.108E+03 9.667E+01 1.121E+10
 ETOT  3   124.41468013782    -3.570E+03 4.799E+02 1.602E+08
 ETOT  4   913.42853970808     7.890E+02 9.610E+01 1.017E+09
 ETOT  5   464.67874416691    -4.487E+02 2.449E+02 1.276E+09
 ETOT  6   354.17030464934    -1.105E+02 5.663E+01 7.386E+08
 ETOT  7   118.34588103961    -2.358E+02 1.185E+01 5.377E+08
 ETOT  8   147.29694522261     2.895E+01 6.448E+00 5.001E+08
 ETOT  9   184.61434479123     3.732E+01 3.807E+00 4.179E+08
 ETOT 10   273.53604344205     8.892E+01 1.017E+00 5.076E+08

 Cartesian components of stress tensor (hartree/bohr^3)
  sigma(1 1)= -3.00609733E-01  sigma(3 2)=  2.95004728E-03
  sigma(2 2)= -2.88589897E-01  sigma(3 1)=  5.84693551E-03
  sigma(3 3)=  7.84755602E-02  sigma(2 1)= -7.62567535E-04


 scprqt:  WARNING -
  nstep=   10 was not enough SCF cycles to converge;
  maximum energy difference=  8.892E+01 exceeds toldfe=  1.000E-02

 Integrated electronic density in atomic spheres:
 ------------------------------------------------
 Atom  Sphere_radius  Integrated_density
    1        2.00000         17.72742002
    2        2.00000         11.54184962
    3        2.00000          8.12956234
    4        2.00000          0.00015120
    5        2.00000          2.02711520
    6        2.00000          0.00222360
    7        2.00000         24.99015469
    8        2.00000          0.00000000
    9        2.00000          0.00094571
   10        2.00000         41.35181661

---OUTPUT-----------------------------------------------------------------------

 Cartesian coordinates (xcart) [bohr]
  4.35131861793671E+01  7.31215128361401E+00 -9.25345007135971E+01
  1.32530163208699E+01 -9.11421492670206E+00  1.36919123620545E+02
  1.37479876804893E+02  1.39014118885582E+01  2.47597893000017E+01
  1.37007599649771E+01  2.05485896563029E+00  7.93959736007874E+01
  5.99597472442690E+00 -1.71062092363778E+01 -1.19803297953866E+01
  9.47882477047757E+00  4.21293608282734E+00  1.07004777218706E+01
 -2.73071231101982E+01  2.14190882697262E+01  5.58454267362247E+01
 -4.60085330441876E+01  1.23119955962664E+01 -2.26482420681683E+02
 -4.86151496525230E+01 -3.02263750738686E+01 -3.04055011556973E+01
  1.87826704189705E+00  3.62115715032610E+00  1.42605061366935E+02
 Reduced coordinates (xred)
  5.01257789366960E+00  8.42336107687542E-01 -2.31336251783993E+00
  1.52670448816583E+00 -1.04992799358378E+00  3.42297809051363E+00
  1.58372358313627E+01  1.60139755420678E+00  6.18994732500042E-01
  1.57828310351317E+00  2.36713087000080E-01  1.98489934001969E+00
  6.90716837667830E-01 -1.97057981250321E+00 -2.99508244884666E-01
  1.09192986481402E+00  4.85316570227092E-01  2.67511943046764E-01
 -3.14569199960812E+00  2.46740948642132E+00  1.39613566840562E+00
 -5.30003375773979E+00  1.41830195330688E+00 -5.66206051704209E+00
 -5.60030753531045E+00 -3.48198035594284E+00 -7.60137528892431E-01
  2.16370270239730E-01  4.17145556898685E-01  3.56512653417337E+00
 Cartesian forces (fcart) [Ha/bohr]; max,rms= 2.47637E+01 8.85062E+00 (free atoms)
 -4.84020149513815E+00  4.00255698944283E+00  1.61176588417749E+01
 -2.62668057080601E+00  1.27612708247759E+00  1.63662853771948E+00
  9.30108003664659E-01 -1.89800459657505E-01 -1.07998140379355E+00
  2.58081151559110E-02 -2.93387374684388E-02 -8.87416662975972E+00
  9.91363938511914E-01 -5.58038837210410E-01 -8.96297998514482E+00
 -8.90289927431144E+00 -9.00186632475847E-01  1.34971153156267E+01
 -5.10302555039369E+00 -9.02344182203489E-01 -1.73579212745661E+01
  9.52229540186328E+00 -1.36605119075620E+00  2.04825952245770E+01
  7.24256117932738E+00  1.96624698642088E+00  9.30479571270848E+00
  2.76067025212614E+00 -3.29917101856941E+00 -2.47637443391423E+01
 Reduced forces (fred)
  4.20168211389952E+01 -3.47453967139554E+01 -6.44706353670996E+02
  2.28016886990528E+01 -1.10778039775714E+01 -6.54651415087792E+01
 -8.07408155821217E+00  1.64761983019487E+00  4.31992561517420E+01
 -2.24035086045432E-01  2.54683712216023E-01  3.54966665190389E+02
 -8.60583207743423E+00  4.84422353805613E+00  3.58519199405793E+02
  7.72842880204428E+01  7.81434011919633E+00 -5.39884612625067E+02
  4.42983441978575E+01  7.83306937687205E+00  6.94316850982645E+02
 -8.26611419244948E+01  1.18584171767164E+01 -8.19303808983080E+02
 -6.28712250855051E+01 -1.70685968397224E+01 -3.72191828508339E+02
 -2.39648263246566E+01  2.86394437779973E+01  9.90549773565693E+02
 Total energy (etotal) [Ha]=  2.73536043442048E+02

 Difference of energy with previous step (new-old):
           Absolute (Ha)=-1.21581E+03
           Relative     =-1.37934E+00
================================================================================

 ----iterations are completed or convergence reached----

 Mean square residual over all n,k,spin=   3.0828E-01; max=  1.0169E+00
 reduced coordinates (array xred) for   10 atoms
       5.012577893670      0.842336107688     -2.313362517840
       1.526704488166     -1.049927993584      3.422978090514
      15.837235831363      1.601397554207      0.618994732500
       1.578283103513      0.236713087000      1.984899340020
       0.690716837668     -1.970579812503     -0.299508244885
       1.091929864814      0.485316570227      0.267511943047
      -3.145691999608      2.467409486421      1.396135668406
      -5.300033757740      1.418301953307     -5.662060517042
      -5.600307535310     -3.481980355943     -0.760137528892
       0.216370270240      0.417145556899      3.565126534173
 rms dE/dt=  3.2992E+02; max dE/dt=  9.9410E+02; dE/dt below (all hartree)
    1      42.157070979182    -34.893349392649   -641.152889612834
    2      22.941938539239    -11.225756656265    -61.911677450617
    3      -7.933831718026      1.499667151501     46.752720209904
    4      -0.083785245859      0.106731033522    358.520129248551
    5      -8.465582237248      4.696270859362    362.072663463955
    6      77.424537860629      7.666387440503   -536.331148566905
    7      44.438594038044      7.685116698178    697.870315040807
    8     -82.520892084309     11.710464498023   -815.750344924918
    9     -62.730975245319    -17.216549518416   -368.638364450177
   10     -23.824576484470     28.491491099304    994.103237623855

 cartesian coordinates (angstrom) at end:
    1     23.02618639925443     3.86942380505065   -48.96714878589067
    2      7.01319418207564    -4.82303481340151    72.45447964010924
    3     72.75121744491045     7.35631033864706    13.10231618705144
    4      7.25012991382821     1.08738453147837    42.01453968335000
    5      3.17293316744842    -9.05221605326290    -6.33971747911031
    6      5.01597803275507     2.22938975627866     5.66244893143895
    7    -14.45030718207816    11.33449334111653    29.55212703279276
    8    -24.34666708764394     6.51522746180460  -119.84933517103934
    9    -25.72602918830722   -15.99510878738414   -16.08989822735189
   10      0.99393611021768     1.91623383267529    75.46334830496025

 cartesian forces (hartree/bohr) at end:
    1     -4.84020149513815     4.00255698944283    16.11765884177489
    2     -2.62668057080601     1.27612708247759     1.63662853771948
    3      0.93010800366466    -0.18980045965750    -1.07998140379355
    4      0.02580811515591    -0.02933873746844    -8.87416662975972
    5      0.99136393851191    -0.55803883721041    -8.96297998514482
    6     -8.90289927431144    -0.90018663247585    13.49711531562667
    7     -5.10302555039369    -0.90234418220349   -17.35792127456612
    8      9.52229540186328    -1.36605119075620    20.48259522457700
    9      7.24256117932738     1.96624698642088     9.30479571270848
   10      2.76067025212614    -3.29917101856941   -24.76374433914232
 frms,max,avg= 8.8506213E+00 2.4763744E+01  -1.616E-02  1.704E-02 -8.884E-02 h/b

 cartesian forces (eV/Angstrom) at end:
    1   -248.89314714609398   205.81973844160970   828.80327147246635
    2   -135.06933429777524    65.62108747647166    84.15881608880925
    3     47.82807254003796    -9.75993123042149   -55.53487199229934
    4      1.32710652841947    -1.50865841208215  -456.32795721383536
    5     50.97797909265234   -28.69550835074927  -460.89492318676128
    6   -457.80544907765375   -46.28945389996888   694.04951667289720
    7   -262.40810232388100   -46.40039955840407  -892.58012466639889
    8    489.65607588964366   -70.24517065487878  1053.25730597895677
    9    372.42743863692533   101.10847678725558   478.47179312963635
   10    141.95936015772520  -169.65018059883232 -1273.40282628347109
 frms,max,avg= 4.5511721E+02 1.2734028E+03  -8.308E-01  8.764E-01 -4.568E+00 e/A
 length scales=  8.680800000000  8.680800000000 40.000000000000 bohr
              =  4.593681512328  4.593681512328 21.167088343600 angstroms
 prteigrs : about to open file totalGeom1Layer_o_EIG
 Fermi (or HOMO) energy (hartree) =  -7.00629   Average Vxc (hartree)=  -0.10958
 Eigenvalues (hartree) for nkpt=   2  k points:
 kpt#   1, nband= 62, wtk=  0.50000, kpt=  0.1250  0.5000  0.5000 (reduced coord)
 -16.39776  -14.81493  -14.80380  -14.79099  -14.40939  -13.10431  -12.82542  -12.69536
 -12.32718  -12.31863  -12.31303  -12.29294  -12.28858  -11.88014  -11.13250  -10.61062
 -10.60277  -10.49489  -10.30432  -10.28781  -10.03467  -10.01345   -9.95687   -9.76758
  -9.74276   -9.70305   -9.43589   -9.27057   -8.99433   -8.88917   -8.88163   -8.82961
  -8.56785   -8.51937   -8.49189   -8.35682   -8.34134   -8.33385   -8.32286   -8.31029
  -8.29159   -8.25573   -8.22824   -8.21306   -8.17952   -8.14723   -8.09162   -8.00266
  -7.91799   -7.86087   -7.66801   -7.50152   -7.44907   -7.39085   -7.25632   -7.23865
  -7.21088   -7.15619   -7.13657   -7.04416   -6.96546   -6.85570
 prteigrs : prtvol=0 or 1, do not print more k-points.


--------------------------------------------------------------------------------
 Components of total free energy (in Hartree) :

    Kinetic energy  =  5.53545484631222E+02
    Hartree energy  =  2.21461732936189E+03
    XC energy       = -1.56518952380260E+02
    Ewald energy    =  3.51025665733075E+02
    PspCore energy  =  6.31056984898496E+00
    Loc. psp. energy= -2.69199685072054E+03
    NL   psp  energy= -3.44720303232429E+00
    >>>>>>>>> Etotal=  2.73536043442048E+02

 Other information on the energy :
    Total energy(eV)=  7.44329427764720E+03 ; Band energy (Ha)=  -1.1715051065E+03
--------------------------------------------------------------------------------
 rms coord change=  2.9218E+00   atom, delta coord (reduced):
     1        5.012577893670      0.842336107688     -2.313362517840
     2        1.026704488166     -1.371972044823      3.314468090514
     3        7.156434522728      1.601397554207      0.551719732500
     4        0.888277574069      0.236713087000      1.835154340020
     5        0.500711308224     -2.292623863743     -0.475293244885
     6        0.281935394258      0.163272518988      0.226276943047
     7       -3.335697529052      2.467409486421      1.041615668406
     8       -5.723520072365      1.118847985931     -6.081568017042
     9       -6.023793849936     -3.182526388567     -1.179645028892
    10        0.216370270240      0.417145556899      3.080634034173

 Cartesian components of stress tensor (hartree/bohr^3)
  sigma(1 1)= -3.00609733E-01  sigma(3 2)=  2.95004728E-03
  sigma(2 2)= -2.88589897E-01  sigma(3 1)=  5.84693551E-03
  sigma(3 3)=  7.84755602E-02  sigma(2 1)= -7.62567535E-04

-Cartesian components of stress tensor (GPa)         [Pressure=  5.0087E+03 GPa]
- sigma(1 1)= -8.84424219E+03  sigma(3 2)=  8.67933729E+01
- sigma(2 2)= -8.49060647E+03  sigma(3 1)=  1.72022753E+02
- sigma(3 3)=  2.30883030E+03  sigma(2 1)= -2.24355077E+01

== END DATASET(S) ==============================================================
================================================================================
  
 -outvars: echo values of variables after computation  --------
            acell      8.6808000000E+00  8.6808000000E+00  4.0000000000E+01 Bohr
              amu      4.78800000E+01  1.59994000E+01  1.06420000E+02
           diemac      1.20000000E+01
          dilatmx      1.10000000E+00
             ecut      6.00000000E+01 Hartree
           ecutsm      5.00000000E-01 Hartree
           etotal      2.7353604344E+02
            fcart     -4.8402014951E+00  4.0025569894E+00  1.6117658842E+01
                      -2.6266805708E+00  1.2761270825E+00  1.6366285377E+00
                       9.3010800366E-01 -1.8980045966E-01 -1.0799814038E+00
                       2.5808115156E-02 -2.9338737468E-02 -8.8741666298E+00
                       9.9136393851E-01 -5.5803883721E-01 -8.9629799851E+00
                      -8.9028992743E+00 -9.0018663248E-01  1.3497115316E+01
                      -5.1030255504E+00 -9.0234418220E-01 -1.7357921275E+01
                       9.5222954019E+00 -1.3660511908E+00  2.0482595225E+01
                       7.2425611793E+00  1.9662469864E+00  9.3047957127E+00
                       2.7606702521E+00 -3.2991710186E+00 -2.4763744339E+01
-          fftalg         112
           ionmov           5
              ixc          11
              kpt      1.25000000E-01  5.00000000E-01  5.00000000E-01
                       3.75000000E-01  5.00000000E-01  5.00000000E-01
           kptopt           2
         kptrlatt        4    0    0      0    1    0      0    0    1
          kptrlen      8.68080000E+00
P           mkmem           2
            natom          10
            nband          62
            ngfft          72      72     320
             nkpt           2
            nstep          10
             nsym           1
            ntime          10
           ntypat           3
              occ      2.000000  2.000000  2.000000  2.000000  2.000000  2.000000
                       2.000000  2.000000  2.000000  2.000000  2.000000  2.000000
                       2.000000  2.000000  2.000000  2.000000  2.000000  2.000000
                       2.000000  2.000000  2.000000  2.000000  2.000000  2.000000
                       2.000000  2.000000  2.000000  2.000000  2.000000  2.000000
                       2.000000  2.000000  2.000000  2.000000  2.000000  2.000000
                       2.000000  2.000000  2.000000  2.000000  2.000000  2.000000
                       2.000000  2.000000  2.000000  2.000000  2.000000  2.000000
                       2.000000  2.000000  2.000000  2.000000  2.000000  2.000000
                       2.000000  2.000000  2.000000  2.000000  2.000000  2.000000
                       0.000000  0.000000
           shiftk      5.00000000E-01  5.00000000E-01  5.00000000E-01
          spgroup           1
           strten     -3.0060973254E-01 -2.8858989676E-01  7.8475560213E-02
                       2.9500472801E-03  5.8469355098E-03 -7.6256753516E-04
           toldfe      1.00000000E-02 Hartree
            typat      1  1  2  2  2  2  3  3  3  3
              wtk        0.50000    0.50000
           xangst      2.3026186399E+01  3.8694238051E+00 -4.8967148786E+01
                       7.0131941821E+00 -4.8230348134E+00  7.2454479640E+01
                       7.2751217445E+01  7.3563103386E+00  1.3102316187E+01
                       7.2501299138E+00  1.0873845315E+00  4.2014539683E+01
                       3.1729331674E+00 -9.0522160533E+00 -6.3397174791E+00
                       5.0159780328E+00  2.2293897563E+00  5.6624489314E+00
                      -1.4450307182E+01  1.1334493341E+01  2.9552127033E+01
                      -2.4346667088E+01  6.5152274618E+00 -1.1984933517E+02
                      -2.5726029188E+01 -1.5995108787E+01 -1.6089898227E+01
                       9.9393611022E-01  1.9162338327E+00  7.5463348305E+01
            xcart      4.3513186179E+01  7.3121512836E+00 -9.2534500714E+01
                       1.3253016321E+01 -9.1142149267E+00  1.3691912362E+02
                       1.3747987680E+02  1.3901411889E+01  2.4759789300E+01
                       1.3700759965E+01  2.0548589656E+00  7.9395973601E+01
                       5.9959747244E+00 -1.7106209236E+01 -1.1980329795E+01
                       9.4788247705E+00  4.2129360828E+00  1.0700477722E+01
                      -2.7307123110E+01  2.1419088270E+01  5.5845426736E+01
                      -4.6008533044E+01  1.2311995596E+01 -2.2648242068E+02
                      -4.8615149653E+01 -3.0226375074E+01 -3.0405501156E+01
                       1.8782670419E+00  3.6211571503E+00  1.4260506137E+02
             xred      5.0125778937E+00  8.4233610769E-01 -2.3133625178E+00
                       1.5267044882E+00 -1.0499279936E+00  3.4229780905E+00
                       1.5837235831E+01  1.6013975542E+00  6.1899473250E-01
                       1.5782831035E+00  2.3671308700E-01  1.9848993400E+00
                       6.9071683767E-01 -1.9705798125E+00 -2.9950824488E-01
                       1.0919298648E+00  4.8531657023E-01  2.6751194305E-01
                      -3.1456919996E+00  2.4674094864E+00  1.3961356684E+00
                      -5.3000337577E+00  1.4183019533E+00 -5.6620605170E+00
                      -5.6003075353E+00 -3.4819803559E+00 -7.6013752889E-01
                       2.1637027024E-01  4.1714555690E-01  3.5651265342E+00
            znucl       22.00000    8.00000   46.00000

================================================================================

- Total cpu        time (s,m,h):      10318.5      171.98      2.866
- Total wall clock time (s,m,h):      11239.2      187.32      3.122
-
- For major independent code sections, cpu and wall times (sec),
-  as well as % of the time and number of calls for node 0-
-<BEGIN_TIMER mpi_nprocs = 1, omp_nthreads = 1, mpi_rank = 0>
- cpu_time =        10318.5, wall_time =        11239.2
-
- routine                        cpu     %       wall     %      number of calls  Gflops    Speedup Efficacity
-                                                                  (-1=no count)
- fourwf%(pot)                3202.188  31.0   3209.915  28.6          74270      -1.00        1.00       1.00
- projbd                      2799.766  27.1   2811.547  25.0         118780      -1.00        1.00       1.00
- nonlop(apply)               2456.734  23.8   2461.982  21.9          74270      -1.00        1.00       1.00
- vtowfk(ssdiag)               474.562   4.6   1368.537  12.2             -1      -1.00        0.35       0.35
- fourwf%(den)                 294.750   2.9    296.164   2.6          12000      -1.00        1.00       1.00
- nonlop(forstr)               128.359   1.2    128.860   1.1           1200      -1.00        1.00       1.00
- xc:pot/=fourdp                68.219   0.7     68.595   0.6            119      -1.00        0.99       0.99
- fourdp                        63.109   0.6     63.624   0.6           1409      -1.00        0.99       0.99
- others (105)                 139.219   1.3    140.459   1.2             -1      -1.00        0.99       0.99
-<END_TIMER>
-
- subtotal                    9626.906  93.3  10549.683  93.9                                  0.91       0.91

- For major independent code sections, cpu and wall times (sec),
- as well as % of the total time and number of calls 

-<BEGIN_TIMER mpi_nprocs = 1, omp_nthreads = 1, mpi_rank = world>
- cpu_time =       10318.5, wall_time =       11239.2
-
- routine                         cpu     %       wall     %      number of calls Gflops    Speedup Efficacity
-                                                                  (-1=no count)
- fourwf%(pot)                3202.188  31.0   3209.915  28.6          74270      -1.00        1.00       1.00
- projbd                      2799.766  27.1   2811.547  25.0         118780      -1.00        1.00       1.00
- nonlop(apply)               2456.734  23.8   2461.982  21.9          74270      -1.00        1.00       1.00
- vtowfk(ssdiag)               474.562   4.6   1368.537  12.2             -1      -1.00        0.35       0.35
- fourwf%(den)                 294.750   2.9    296.164   2.6          12000      -1.00        1.00       1.00
- nonlop(forstr)               128.359   1.2    128.860   1.1           1200      -1.00        1.00       1.00
- xc:pot/=fourdp                68.219   0.7     68.595   0.6            119      -1.00        0.99       0.99
- fourdp                        63.109   0.6     63.624   0.6           1409      -1.00        0.99       0.99
- others (105)                 139.219   1.3    140.459   1.2             -1      -1.00        0.99       0.99
-<END_TIMER>

- subtotal                    9626.906  93.3  10549.683  93.9                                  0.91       0.91

================================================================================

 Suggested references for the acknowledgment of ABINIT usage.

 The users of ABINIT have little formal obligations with respect to the ABINIT group
 (those specified in the GNU General Public License, http://www.gnu.org/copyleft/gpl.txt).
 However, it is common practice in the scientific literature,
 to acknowledge the efforts of people that have made the research possible.
 In this spirit, please find below suggested citations of work written by ABINIT developers,
 corresponding to implementations inside of ABINIT that you have used in the present run.
 Note also that it will be of great value to readers of publications presenting these results,
 to read papers enabling them to understand the theoretical formalism and details
 of the ABINIT implementation.
 For information on why they are suggested, see also https://www.abinit.org/about/?text=acknowledgments.
-
- [1] Recent developments in the ABINIT software package.
- Computer Phys. Comm. 205, 106 (2016).
- X.Gonze, F.Jollet, F.Abreu Araujo, D.Adams, B.Amadon, T.Applencourt,
- C.Audouze, J.-M.Beuken, J.Bieder, A.Bokhanchuk, E.Bousquet, F.Bruneval
- D.Caliste, M.Cote, F.Dahm, F.Da Pieve, M.Delaveau, M.Di Gennaro,
- B.Dorado, C.Espejo, G.Geneste, L.Genovese, A.Gerossier, M.Giantomassi,
- Y.Gillet, D.R.Hamann, L.He, G.Jomard, J.Laflamme Janssen, S.Le Roux,
- A.Levitt, A.Lherbier, F.Liu, I.Lukacevic, A.Martin, C.Martins,
- M.J.T.Oliveira, S.Ponce, Y.Pouillon, T.Rangel, G.-M.Rignanese,
- A.H.Romero, B.Rousseau, O.Rubel, A.A.Shukri, M.Stankovski, M.Torrent,
- M.J.Van Setten, B.Van Troeye, M.J.Verstraete, D.Waroquier, J.Wiktor,
- B.Xue, A.Zhou, J.W.Zwanziger.
- Comment : the fourth generic paper describing the ABINIT project.
- Note that a version of this paper, that is not formatted for Computer Phys. Comm. 
- is available at https://www.abinit.org/about/ABINIT16.pdf .
- The licence allows the authors to put it on the Web.
-
- [2] Optimized norm-conserving Vanderbilt pseudopotentials.
- D.R. Hamann, Phys. Rev. B 88, 085117 (2013).
- Comment: Some pseudopotential generated using the ONCVPSP code were used.
-
- [3] ABINIT : First-principles approach of materials and nanosystem properties.
- Computer Phys. Comm. 180, 2582-2615 (2009).
- X. Gonze, B. Amadon, P.-M. Anglade, J.-M. Beuken, F. Bottin, P. Boulanger, F. Bruneval,
- D. Caliste, R. Caracas, M. Cote, T. Deutsch, L. Genovese, Ph. Ghosez, M. Giantomassi
- S. Goedecker, D.R. Hamann, P. Hermet, F. Jollet, G. Jomard, S. Leroux, M. Mancini, S. Mazevet,
- M.J.T. Oliveira, G. Onida, Y. Pouillon, T. Rangel, G.-M. Rignanese, D. Sangalli, R. Shaltaf,
- M. Torrent, M.J. Verstraete, G. Zerah, J.W. Zwanziger
- Comment : the third generic paper describing the ABINIT project.
- Note that a version of this paper, that is not formatted for Computer Phys. Comm. 
- is available at https://www.abinit.org/about/ABINIT_CPC_v10.pdf .
- The licence allows the authors to put it on the Web.
-
- [4] A brief introduction to the ABINIT software package.
- Z. Kristallogr. 220, 558-562 (2005).
- X. Gonze, G.-M. Rignanese, M. Verstraete, J.-M. Beuken, Y. Pouillon, R. Caracas, F. Jollet,
- M. Torrent, G. Zerah, M. Mikami, Ph. Ghosez, M. Veithen, J.-Y. Raty, V. Olevano, F. Bruneval,
- L. Reining, R. Godby, G. Onida, D.R. Hamann, and D.C. Allan.
- Comment : the second generic paper describing the ABINIT project. Note that this paper
- should be cited especially if you are using the GW part of ABINIT, as several authors
- of this part are not in the list of authors of the first or third paper.
- The .pdf of the latter paper is available at https://www.abinit.org/about/zfk_0505-06_558-562.pdf.
- Note that it should not redistributed (Copyright by Oldenburg Wissenshaftverlag,
- the licence allows the authors to put it on the Web).
-
- And optionally:
-
- [5] First-principles computation of material properties : the ABINIT software project. 
- X. Gonze, J.-M. Beuken, R. Caracas, F. Detraux, M. Fuchs, G.-M. Rignanese, L. Sindic,
- M. Verstraete, G. Zerah, F. Jollet, M. Torrent, A. Roy, M. Mikami, Ph. Ghosez, J.-Y. Raty, D.C. Allan.
- Computational Materials Science 25, 478-492 (2002). http://dx.doi.org/10.1016/S0927-0256(02)00325-7
- Comment : the original paper describing the ABINIT project.
-
- Proc.   0 individual time (sec): cpu=      10318.5  wall=      11239.2

================================================================================

 Calculation completed.
.Delivered  39 WARNINGs and  21 COMMENTs to log file.
+Overall time at end (sec) : cpu=      10318.5  wall=      11239.2
