
.Version 8.6.3 of ABINIT 
.(sequential version, prepared for a x86_64_linux_gnu5.4 computer) 

.Copyright (C) 1998-2017 ABINIT group . 
 ABINIT comes with ABSOLUTELY NO WARRANTY.
 It is free software, and you are welcome to redistribute it
 under certain conditions (GNU General Public License,
 see ~abinit/COPYING or http://www.gnu.org/copyleft/gpl.txt).

 ABINIT is a project of the Universite Catholique de Louvain,
 Corning Inc. and other collaborators, see ~abinit/doc/developers/contributors.txt .
 Please read ~abinit/doc/users/acknowledgments.html for suggested
 acknowledgments of the ABINIT effort.
 For more information, see https://www.abinit.org .

.Starting date : Tue 17 Apr 2018.
- ( at 00h40 )
  
- input  file    -> sim2DOS.in
- output file    -> sim2DOS.out
- root for input  files -> sim2DOS_i
- root for output files -> sim2DOS_o


 Symmetries : space group Cm (#  8); Bravais mC (1-face-center monocl.)
================================================================================
 Values of the parameters that define the memory need of the present run
     intxc =       0    ionmov =       0      iscf =       7    lmnmax =       6
     lnmax =       6     mgfft =     108  mpssoang =       3    mqgrid =    5199
     natom =      30  nloc_mem =       1    nspden =       1   nspinor =       1
    nsppol =       1      nsym =       2    n1xccc =    2501    ntypat =       3
    occopt =       1   xclevel =       1
-    mband =         160        mffmem =           1         mkmem =          10
       mpw =        3347          nfft =       62208          nkpt =          10
================================================================================
P This job should need less than                     105.968 Mbytes of memory.
  Rough estimation (10% accuracy) of disk space for files :
_ WF disk file :     81.716 Mbytes ; DEN or POT disk file :      0.477 Mbytes.
================================================================================

--------------------------------------------------------------------------------
------------- Echo of variables that govern the present computation ------------
--------------------------------------------------------------------------------
-
- outvars: echo of selected default values                                      
-   iomode0 =  0 , fftalg0 =112 , wfoptalg0 =  0
-
- outvars: echo of global parameters not present in the input file              
-  max_nthreads =    0
-
 -outvars: echo values of preprocessed input variables --------
            acell      8.6808000000E+00  8.6808000000E+00  4.0830000000E+01 Bohr
              amu      4.78800000E+01  1.59994000E+01  1.06420000E+02
           diemac      1.20000000E+01
             ecut      8.00000000E+00 Hartree
-          fftalg         112
           iatsph0       1    2    3    4    5    6    7    8    9   10
                        11   12   13   14   15   16   17   18   19   20
                        21   22   23   24   25   26   27   28   29   30
           istwfk        0    0    0    0    0    7    0    5    6    4
              kpt     -1.25000000E-01  0.00000000E+00  0.00000000E+00
                      -2.50000000E-01  5.00000000E-01  0.00000000E+00
                      -1.25000000E-01  5.00000000E-01  5.00000000E-01
                      -3.75000000E-01  0.00000000E+00  0.00000000E+00
                      -2.50000000E-01  0.00000000E+00  5.00000000E-01
                       5.00000000E-01  5.00000000E-01  0.00000000E+00
                      -3.75000000E-01  5.00000000E-01  5.00000000E-01
                       5.00000000E-01  0.00000000E+00  5.00000000E-01
                       0.00000000E+00  5.00000000E-01  0.00000000E+00
                       0.00000000E+00  0.00000000E+00  5.00000000E-01
           kptopt           2
         kptrlatt        4   -1    1      0    2    0     -4   -1    1
          kptrlen      1.73616000E+01
P           mkmem          10
            natom          30
           natsph       30
            nband         160
            ngfft          24      24     108
             nkpt          10
            nstep          10
             nsym           2
           ntypat           3
              occ      2.000000  2.000000  2.000000  2.000000  2.000000  2.000000
                       2.000000  2.000000  2.000000  2.000000  2.000000  2.000000
                       2.000000  2.000000  2.000000  2.000000  2.000000  2.000000
                       2.000000  2.000000  2.000000  2.000000  2.000000  2.000000
                       2.000000  2.000000  2.000000  2.000000  2.000000  2.000000
                       2.000000  2.000000  2.000000  2.000000  2.000000  2.000000
                       2.000000  2.000000  2.000000  2.000000  2.000000  2.000000
                       2.000000  2.000000  2.000000  2.000000  2.000000  2.000000
                       2.000000  2.000000  2.000000  2.000000  2.000000  2.000000
                       2.000000  2.000000  2.000000  2.000000  2.000000  2.000000
                       2.000000  2.000000  2.000000  2.000000  2.000000  2.000000
                       2.000000  2.000000  2.000000  2.000000  2.000000  2.000000
                       2.000000  2.000000  2.000000  2.000000  2.000000  2.000000
                       2.000000  2.000000  2.000000  2.000000  2.000000  2.000000
                       2.000000  2.000000  2.000000  2.000000  2.000000  2.000000
                       2.000000  2.000000  2.000000  2.000000  2.000000  2.000000
                       2.000000  2.000000  2.000000  2.000000  2.000000  2.000000
                       2.000000  2.000000  2.000000  2.000000  2.000000  2.000000
                       2.000000  2.000000  2.000000  2.000000  2.000000  2.000000
                       2.000000  2.000000  2.000000  2.000000  2.000000  2.000000
                       2.000000  2.000000  2.000000  2.000000  2.000000  2.000000
                       2.000000  2.000000  2.000000  2.000000  2.000000  2.000000
                       2.000000  2.000000  2.000000  2.000000  2.000000  2.000000
                       2.000000  2.000000  2.000000  2.000000  2.000000  2.000000
                       2.000000  2.000000  2.000000  2.000000  2.000000  2.000000
                       2.000000  2.000000  2.000000  2.000000  2.000000  2.000000
                       0.000000  0.000000  0.000000  0.000000
           prtdos           3
           shiftk      5.00000000E-01  0.00000000E+00  5.00000000E-01
          spgroup           8
           symrel      1  0  0   0  1  0   0  0  1       0  1  0   1  0  0   0  0  1
           toldfe      1.00000000E-06 Hartree
            typat      1  1  1  1  1  1  2  2  2  2  2  2  2  2  2  2  2  2  3  3
                       3  3  3  3  3  3  3  3  3  3
              wtk        0.12500    0.12500    0.12500    0.12500    0.12500    0.06250
                         0.12500    0.06250    0.06250    0.06250
           xangst      0.0000000000E+00  0.0000000000E+00  0.0000000000E+00
                       0.0000000000E+00  0.0000000000E+00  2.9586826909E+00
                       0.0000000000E+00  0.0000000000E+00  5.9173653819E+00
                       2.2968407562E+00  2.2968407562E+00  1.4793678043E+00
                       2.2968407562E+00  2.2968407562E+00  4.4379975776E+00
                       2.2968407562E+00  2.2968407562E+00  7.3967331862E+00
                       3.4452611342E+00  1.1484203781E+00  0.0000000000E+00
                       3.4452611342E+00  1.1484203781E+00  2.9586826909E+00
                       3.4452611342E+00  1.1484203781E+00  5.9173653819E+00
                       1.1484203781E+00  3.4452611342E+00  0.0000000000E+00
                       1.1484203781E+00  3.4452611342E+00  2.9586826909E+00
                       1.1484203781E+00  3.4452611342E+00  5.9173653819E+00
                       1.1484203781E+00  1.1484203781E+00  0.0000000000E+00
                       1.1484203781E+00  1.1484203781E+00  2.9586826909E+00
                       1.1484203781E+00  1.1484203781E+00  5.9173653819E+00
                       3.4452611342E+00  3.4452611342E+00  0.0000000000E+00
                       3.4452611342E+00  3.4452611342E+00  2.9586826909E+00
                       3.4452611342E+00  3.4452611342E+00  5.9173653819E+00
                       0.0000000000E+00  0.0000000000E+00  1.3825124998E+01
                       0.0000000000E+00  0.0000000000E+00  1.7715847507E+01
                       0.0000000000E+00  0.0000000000E+00  2.1606570015E+01
                       1.9453612542E+00  1.9453612542E+00  9.9344024900E+00
                       1.9453612542E+00  1.9453612542E+00  1.3825124998E+01
                       1.9453612542E+00  1.9453612542E+00  1.7715847507E+01
                       1.9453612542E+00  0.0000000000E+00  1.1879763744E+01
                       1.9453612542E+00  0.0000000000E+00  1.5770486253E+01
                       1.9453612542E+00  0.0000000000E+00  1.9661208761E+01
                       0.0000000000E+00  1.9453612542E+00  1.1879763744E+01
                       0.0000000000E+00  1.9453612542E+00  1.5770486253E+01
                       0.0000000000E+00  1.9453612542E+00  1.9661208761E+01
            xcart      0.0000000000E+00  0.0000000000E+00  0.0000000000E+00
                       0.0000000000E+00  0.0000000000E+00  5.5911000000E+00
                       0.0000000000E+00  0.0000000000E+00  1.1182200000E+01
                       4.3404000000E+00  4.3404000000E+00  2.7956000000E+00
                       4.3404000000E+00  4.3404000000E+00  8.3866000000E+00
                       4.3404000000E+00  4.3404000000E+00  1.3977800000E+01
                       6.5106000000E+00  2.1702000000E+00  0.0000000000E+00
                       6.5106000000E+00  2.1702000000E+00  5.5911000000E+00
                       6.5106000000E+00  2.1702000000E+00  1.1182200000E+01
                       2.1702000000E+00  6.5106000000E+00  0.0000000000E+00
                       2.1702000000E+00  6.5106000000E+00  5.5911000000E+00
                       2.1702000000E+00  6.5106000000E+00  1.1182200000E+01
                       2.1702000000E+00  2.1702000000E+00  0.0000000000E+00
                       2.1702000000E+00  2.1702000000E+00  5.5911000000E+00
                       2.1702000000E+00  2.1702000000E+00  1.1182200000E+01
                       6.5106000000E+00  6.5106000000E+00  0.0000000000E+00
                       6.5106000000E+00  6.5106000000E+00  5.5911000000E+00
                       6.5106000000E+00  6.5106000000E+00  1.1182200000E+01
                       0.0000000000E+00  0.0000000000E+00  2.6125700000E+01
                       0.0000000000E+00  0.0000000000E+00  3.3478100000E+01
                       0.0000000000E+00  0.0000000000E+00  4.0830500000E+01
                       3.6762000000E+00  3.6762000000E+00  1.8773300000E+01
                       3.6762000000E+00  3.6762000000E+00  2.6125700000E+01
                       3.6762000000E+00  3.6762000000E+00  3.3478100000E+01
                       3.6762000000E+00  0.0000000000E+00  2.2449500000E+01
                       3.6762000000E+00  0.0000000000E+00  2.9801900000E+01
                       3.6762000000E+00  0.0000000000E+00  3.7154300000E+01
                       0.0000000000E+00  3.6762000000E+00  2.2449500000E+01
                       0.0000000000E+00  3.6762000000E+00  2.9801900000E+01
                       0.0000000000E+00  3.6762000000E+00  3.7154300000E+01
             xred      0.0000000000E+00  0.0000000000E+00  0.0000000000E+00
                       0.0000000000E+00  0.0000000000E+00  1.3693607641E-01
                       0.0000000000E+00  0.0000000000E+00  2.7387215283E-01
                       5.0000000000E-01  5.0000000000E-01  6.8469262797E-02
                       5.0000000000E-01  5.0000000000E-01  2.0540289003E-01
                       5.0000000000E-01  5.0000000000E-01  3.4234141563E-01
                       7.5000000000E-01  2.5000000000E-01  0.0000000000E+00
                       7.5000000000E-01  2.5000000000E-01  1.3693607641E-01
                       7.5000000000E-01  2.5000000000E-01  2.7387215283E-01
                       2.5000000000E-01  7.5000000000E-01  0.0000000000E+00
                       2.5000000000E-01  7.5000000000E-01  1.3693607641E-01
                       2.5000000000E-01  7.5000000000E-01  2.7387215283E-01
                       2.5000000000E-01  2.5000000000E-01  0.0000000000E+00
                       2.5000000000E-01  2.5000000000E-01  1.3693607641E-01
                       2.5000000000E-01  2.5000000000E-01  2.7387215283E-01
                       7.5000000000E-01  7.5000000000E-01  0.0000000000E+00
                       7.5000000000E-01  7.5000000000E-01  1.3693607641E-01
                       7.5000000000E-01  7.5000000000E-01  2.7387215283E-01
                       0.0000000000E+00  0.0000000000E+00  6.3986529513E-01
                       0.0000000000E+00  0.0000000000E+00  8.1993877051E-01
                       0.0000000000E+00  0.0000000000E+00  1.0000122459E+00
                       4.2348631463E-01  4.2348631463E-01  4.5979181974E-01
                       4.2348631463E-01  4.2348631463E-01  6.3986529513E-01
                       4.2348631463E-01  4.2348631463E-01  8.1993877051E-01
                       4.2348631463E-01  0.0000000000E+00  5.4982855743E-01
                       4.2348631463E-01  0.0000000000E+00  7.2990203282E-01
                       4.2348631463E-01  0.0000000000E+00  9.0997550820E-01
                       0.0000000000E+00  4.2348631463E-01  5.4982855743E-01
                       0.0000000000E+00  4.2348631463E-01  7.2990203282E-01
                       0.0000000000E+00  4.2348631463E-01  9.0997550820E-01
            znucl       22.00000    8.00000   46.00000

================================================================================

 chkinp: Checking input parameters for consistency.

================================================================================
== DATASET  1 ==================================================================
-   nproc =    1

 Exchange-correlation functional for the present dataset will be:
  LDA: new Teter (4/93) with spin-polarized option - ixc=1
 Citation for XC functional:
  S. Goedecker, M. Teter, J. Huetter, PRB 54, 1703 (1996)

 Real(R)+Recip(G) space primitive vectors, cartesian coordinates (Bohr,Bohr^-1):
 R(1)=  8.6808000  0.0000000  0.0000000  G(1)=  0.1151968  0.0000000  0.0000000
 R(2)=  0.0000000  8.6808000  0.0000000  G(2)=  0.0000000  0.1151968  0.0000000
 R(3)=  0.0000000  0.0000000 40.8300000  G(3)=  0.0000000  0.0000000  0.0244918
 Unit cell volume ucvol=  3.0767973E+03 bohr^3
 Angles (23,13,12)=  9.00000000E+01  9.00000000E+01  9.00000000E+01 degrees

 getcut: wavevector=  0.0000  0.0000  0.0000  ngfft=  24  24 108
         ecut(hartree)=      8.000   => boxcut(ratio)=   2.07747

--- Pseudopotential description ------------------------------------------------
- pspini: atom type   1  psp file is ../../../Psps_for_tests/22ti.pspnc
- pspatm: opening atomic psp file    ../../../Psps_for_tests/22ti.pspnc
-  Troullier-Martins psp for element  Ti        Thu Oct 27 17:33:40 EDT 1994
- 22.00000   4.00000    940714                znucl, zion, pspdat
    1    1    2    0      2001   0.00000      pspcod,pspxc,lmax,lloc,mmax,r2well
    0   5.166   8.509    0   2.4203472        l,e99.0,e99.9,nproj,rcpsp
   0.00000000   0.00000000   0.00000000   0.00000000     rms, ekb1, ekb2, epsatm
    1   2.285   3.944    1   2.9934301        l,e99.0,e99.9,nproj,rcpsp
   0.00000000   0.00000000   0.00000000   0.00000000     rms, ekb1, ekb2, epsatm
    2  20.947  27.069    1   1.9326638        l,e99.0,e99.9,nproj,rcpsp
   0.00000000   0.00000000   0.00000000   0.00000000     rms, ekb1, ekb2, epsatm
    2.82741504495369    0.09256629068341    1.82586447305099   rchrg,fchrg,qchrg
  pspatm : epsatm=   66.67453488
         --- l  ekb(1:nproj) -->
             1    0.915537
             2   -8.015692
 pspatm: atomic psp has been read  and splines computed

- pspini: atom type   2  psp file is ../../../Psps_for_tests/8o.pspnc
- pspatm: opening atomic psp file    ../../../Psps_for_tests/8o.pspnc
-  Troullier-Martins psp for element  O         Thu Oct 27 17:29:57 EDT 1994
-  8.00000   6.00000    940714                znucl, zion, pspdat
    1    1    1    1      2001   0.00000      pspcod,pspxc,lmax,lloc,mmax,r2well
    0   5.480  16.893    1   1.4482335        l,e99.0,e99.9,nproj,rcpsp
   0.00000000   0.00000000   0.00000000   0.00000000     rms, ekb1, ekb2, epsatm
    1  20.911  28.075    0   1.4482335        l,e99.0,e99.9,nproj,rcpsp
   0.00000000   0.00000000   0.00000000   0.00000000     rms, ekb1, ekb2, epsatm
    0.56990156784787    3.95561236318184    0.63894027514378   rchrg,fchrg,qchrg
  pspatm : epsatm=    1.57752239
         --- l  ekb(1:nproj) -->
             0    5.670783
 pspatm: atomic psp has been read  and splines computed

- pspini: atom type   3  psp file is ../../../Psps_for_tests/Pd.psp8
- pspatm: opening atomic psp file    ../../../Psps_for_tests/Pd.psp8
- Pd    ONCVPSP-3.2.3.1  r_core=   1.41052   1.46191   1.55175
- 46.00000  18.00000    170510                znucl, zion, pspdat
    8   11    2    4       600   0.00000      pspcod,pspxc,lmax,lloc,mmax,r2well
    5.99000000000000    7.00000000000000    0.00000000000000   rchrg,fchrg,qchrg
     nproj     2     2     2
     extension_switch     1
  pspatm : epsatm=   26.09224486
         --- l  ekb(1:nproj) -->
             0    7.845850   -2.282160
             1    3.261104   -0.686948
             2   -1.134855   -0.401224
 pspatm: atomic psp has been read  and splines computed

   2.28410338E+05                                ecore*ucvol(ha*bohr**3)
--------------------------------------------------------------------------------

_setup2: Arith. and geom. avg. npw (full set) are    3320.000    3319.902

================================================================================

     iter   Etot(hartree)      deltaE(h)  residm     vres2
 ETOT  1   142313.50530072     1.423E+05 6.022E-02 1.719E+06
 ETOT  2   143590.65662258     1.277E+03 1.783E-01 3.000E+07
 ETOT  3   142565.69370218    -1.025E+03 4.481E-01 7.384E+06
 ETOT  4   142238.52702732    -3.272E+02 1.812E-01 5.630E+05
 ETOT  5   142254.91409786     1.639E+01 7.868E-02 1.074E+06
 ETOT  6   142243.80059896    -1.111E+01 1.079E-02 9.025E+05
 ETOT  7   142217.21630492    -2.658E+01 1.016E-02 3.892E+05
 ETOT  8   142204.80305973    -1.241E+01 1.097E-02 1.333E+05
 ETOT  9   142202.71580250    -2.087E+00 9.287E-03 9.050E+04
 ETOT 10   142216.98994761     1.427E+01 1.490E-01 3.676E+05

 Cartesian components of stress tensor (hartree/bohr^3)
  sigma(1 1)=  2.90003889E-02  sigma(3 2)=  5.06119437E-05
  sigma(2 2)=  2.90003889E-02  sigma(3 1)=  5.06119437E-05
  sigma(3 3)= -4.67546153E+01  sigma(2 1)=  2.05725752E-05


 scprqt:  WARNING -
  nstep=   10 was not enough SCF cycles to converge;
  maximum energy difference=  1.427E+01 exceeds toldfe=  1.000E-06

 Integrated electronic density in atomic spheres:
 ------------------------------------------------
 Atom  Sphere_radius  Integrated_density
    1        2.00000         17.67309897
    2        2.00000          1.74131643
    3        2.00000          1.55481689
    4        2.00000          0.72012512
    5        2.00000          0.83291798
    6        2.00000          0.82270770
    7        2.00000          7.12917319
    8        2.00000          5.37507348
    9        2.00000          5.14969519
   10        2.00000          7.12917319
   11        2.00000          5.37507348
   12        2.00000          5.14969519
   13        2.00000          7.08835480
   14        2.00000          5.35115597
   15        2.00000          5.16362838
   16        2.00000          7.07072195
   17        2.00000          5.39199120
   18        2.00000          5.14107597
   19        2.00000         15.82187079
   20        2.00000         14.79033051
   21        2.00000         17.67309897
   22        2.00000         14.94233460
   23        2.00000         15.68179021
   24        2.00000         14.87395947
   25        2.00000         14.91297038
   26        2.00000         15.37008069
   27        2.00000         14.15191454
   28        2.00000         14.91297038
   29        2.00000         15.37008069
   30        2.00000         14.15191454
================================================================================

 ----iterations are completed or convergence reached----

 Mean square residual over all n,k,spin=   5.6524E-03; max=  1.4900E-01
 reduced coordinates (array xred) for   30 atoms
       0.000000000000      0.000000000000      0.000000000000
       0.000000000000      0.000000000000      0.136936076414
       0.000000000000      0.000000000000      0.273872152829
       0.500000000000      0.500000000000      0.068469262797
       0.500000000000      0.500000000000      0.205402890032
       0.500000000000      0.500000000000      0.342341415626
       0.750000000000      0.250000000000      0.000000000000
       0.750000000000      0.250000000000      0.136936076414
       0.750000000000      0.250000000000      0.273872152829
       0.250000000000      0.750000000000      0.000000000000
       0.250000000000      0.750000000000      0.136936076414
       0.250000000000      0.750000000000      0.273872152829
       0.250000000000      0.250000000000      0.000000000000
       0.250000000000      0.250000000000      0.136936076414
       0.250000000000      0.250000000000      0.273872152829
       0.750000000000      0.750000000000      0.000000000000
       0.750000000000      0.750000000000      0.136936076414
       0.750000000000      0.750000000000      0.273872152829
       0.000000000000      0.000000000000      0.639865295126
       0.000000000000      0.000000000000      0.819938770512
       0.000000000000      0.000000000000      1.000012245898
       0.423486314625      0.423486314625      0.459791819740
       0.423486314625      0.423486314625      0.639865295126
       0.423486314625      0.423486314625      0.819938770512
       0.423486314625      0.000000000000      0.549828557433
       0.423486314625      0.000000000000      0.729902032819
       0.423486314625      0.000000000000      0.909975508205
       0.000000000000      0.423486314625      0.549828557433
       0.000000000000      0.423486314625      0.729902032819
       0.000000000000      0.423486314625      0.909975508205
 rms dE/dt=  1.7529E+09; max dE/dt=  1.1759E+10; dE/dt below (all hartree)
    1      -0.865454885870     -0.865454885870********************
    2      -0.011322136962     -0.011322136962    -57.680945265376
    3       0.023418978543      0.023418978543     81.447370522922
    4       0.117729180771      0.117729180771    -74.620641088675
    5       0.018266863717      0.018266863717     11.328384507742
    6       0.036498651981      0.036498651981     75.878716717076
    7       7.161817698862     -7.041238555261     42.735878303948
    8       5.031410004350     -5.016399349063     26.411107423458
    9       5.755973632415     -5.753780558024    -51.344396727402
   10      -7.041238555261      7.161817698862     42.735878303948
   11      -5.016399349063      5.031410004350     26.411107423458
   12      -5.753780558024      5.755973632415    -51.344396727402
   13      -7.291069983173     -7.291069983173     41.170667368368
   14      -5.022040801161     -5.022040801161     26.277312250193
   15      -5.770691912331     -5.770691912331    -51.631825049116
   16       6.995781893703      6.995781893703     44.026985617662
   17       4.970650032935      4.970650032935     26.383687487472
   18       5.747202546352      5.747202546352    -51.148368837241
   19       2.433705219382      2.433705219382      4.830135547673
   20       0.769874657772      0.769874657772     -3.185547743537
   21       0.285527588264      0.285527588264********************
   22      -0.545401746153     -0.545401746153     -6.253624405164
   23      -2.479693069712     -2.479693069712      4.422613049246
   24      -0.853030198793     -0.853030198793     -3.860117225890
   25      -0.817105599912      1.039412887222      2.162719223842
   26      -1.762811757928      1.598351054581     -7.684922299928
   27       0.748877287833     -0.004439022513     10.531326535119
   28       1.039412887222     -0.817105599912      2.162719223842
   29       1.598351054581     -1.762811757928     -7.684922299928
   30      -0.004439022513      0.748877287833     10.531326535119

 cartesian coordinates (angstrom) at end:
    1      0.00000000000000     0.00000000000000     0.00000000000000
    2      0.00000000000000     0.00000000000000     2.95868269094755
    3      0.00000000000000     0.00000000000000     5.91736538189510
    4      2.29684075616404     2.29684075616404     1.47936780433420
    5      2.29684075616404     2.29684075616404     4.43799757756089
    6      2.29684075616404     2.29684075616404     7.39673318622930
    7      3.44526113424605     1.14842037808202     0.00000000000000
    8      3.44526113424605     1.14842037808202     2.95868269094755
    9      3.44526113424605     1.14842037808202     5.91736538189510
   10      1.14842037808202     3.44526113424605     0.00000000000000
   11      1.14842037808202     3.44526113424605     2.95868269094755
   12      1.14842037808202     3.44526113424605     5.91736538189510
   13      1.14842037808202     1.14842037808202     0.00000000000000
   14      1.14842037808202     1.14842037808202     2.95868269094755
   15      1.14842037808202     1.14842037808202     5.91736538189510
   16      3.44526113424605     3.44526113424605     0.00000000000000
   17      3.44526113424605     3.44526113424605     2.95868269094755
   18      3.44526113424605     3.44526113424605     5.91736538189510
   19      0.00000000000000     0.00000000000000    13.82512499845976
   20      0.00000000000000     0.00000000000000    17.71584750689687
   21      0.00000000000000     0.00000000000000    21.60657001533399
   22      1.94536125421856     1.94536125421856     9.93440249002265
   23      1.94536125421856     1.94536125421856    13.82512499845976
   24      1.94536125421856     1.94536125421856    17.71584750689687
   25      1.94536125421856     0.00000000000000    11.87976374424120
   26      1.94536125421856     0.00000000000000    15.77048625267832
   27      1.94536125421856     0.00000000000000    19.66120876111544
   28      0.00000000000000     1.94536125421856    11.87976374424120
   29      0.00000000000000     1.94536125421856    15.77048625267832
   30      0.00000000000000     1.94536125421856    19.66120876111544

 cartesian forces (hartree/bohr) at end:
    1          0.09777772086264         0.09777772086264-287999995.82471388578415
    2     -0.00061560105567    -0.00061560105567     1.40227672569015
    3     -0.00461766486370    -0.00461766486370    -2.00522549787827
    4     -0.01548189422362    -0.01548189422362     1.81716028736782
    5     -0.00402415794894    -0.00402415794894    -0.28788564935560
    6     -0.00612440081408    -0.00612440081408    -1.86883916905519
    7     -0.82693804090264     0.80920796570078    -1.05711155668369
    8     -0.58152198541102     0.57595305760502    -0.65728861079856
    9     -0.66498936492271     0.66089698085640     1.24708327631533
   10      0.80920796570078    -0.82693804090264    -1.05711155668369
   11      0.57595305760502    -0.58152198541102    -0.65728861079856
   12      0.66089698085640    -0.66498936492271     1.24708327631533
   13      0.83798773575793     0.83798773575793    -1.01877673092860
   14      0.57660293458615     0.57660293458615    -0.65401172680970
   15      0.66284511401317     0.66284511401317     1.25412291191939
   16     -0.80781125475862    -0.80781125475862    -1.08873309265513
   17     -0.57452263380570    -0.57452263380570    -0.65661704734066
   18     -0.66397896426107    -0.66397896426107     1.24228220136648
   19     -0.28227482098288    -0.28227482098288    -0.12873186635122
   20     -0.09060693765296    -0.09060693765296     0.06758660759464
   21         -0.03481172643877        -0.03481172643877 287999998.88461714982986
   22      0.06090863740062     0.06090863740062     0.14272931299821
   23      0.28373272314837     0.28373272314837    -0.11875090876055
   24      0.09634643721631     0.09634643721631     0.08410802523739
   25      0.09220803996247    -0.12165686731964    -0.06340205190520
   26      0.20115032155130    -0.18604473103712     0.17778436797652
   27     -0.08818810875022    -0.00140851351180    -0.26836426868886
   28     -0.12165686731964     0.09220803996247    -0.06340205190520
   29     -0.18604473103712     0.20115032155130     0.17778436797652
   30     -0.00140851351180    -0.08818810875022    -0.26836426868886
 frms,max,avg= 4.2932505E+07 2.8800000E+08   1.920E-03  1.920E-03  1.043E-02 h/b

 cartesian forces (eV/Angstrom) at end:
    1          5.02793214099025         5.02793214099025*************************
    2     -0.03165547638564    -0.03165547638564    72.10796240142466
    3     -0.23744985442155    -0.23744985442155  -103.11283226655621
    4     -0.79611094310245    -0.79611094310245    93.44213112742905
    5     -0.20693050434601    -0.20693050434601   -14.80367405329814
    6     -0.31492932567631    -0.31492932567631   -96.09956584726038
    7    -42.52286019534979    41.61114314791720   -54.35885726901950
    8    -29.90306028147335    29.61669452392021   -33.79913648001321
    9    -34.19512514521293    33.98468631314829    64.12759504065355
   10     41.61114314791720   -42.52286019534980   -54.35885726901950
   11     29.61669452392022   -29.90306028147335   -33.79913648001321
   12     33.98468631314829   -34.19512514521293    64.12759504065355
   13     43.09105830245330    43.09105830245330   -52.38760143657866
   14     29.65011253911108    29.65011253911108   -33.63063234446430
   15     34.08486333944234    34.08486333944234    64.48958762753549
   16    -41.53932138958822   -41.53932138958822   -55.98490188997842
   17    -29.54313918092016   -29.54313918092016   -33.76460330144351
   18    -34.14316825854035   -34.14316825854035    63.88071386124317
   19    -14.51515368215544   -14.51515368215544    -6.61965816636554
   20     -4.65919567364472    -4.65919567364472     3.47544280667981
   21         -1.79009079676495        -1.79009079676495*************************
   22      3.13204780136705     3.13204780136705     7.33943575237688
   23     14.59012201943762    14.59012201943762    -6.10641673441888
   24      4.95433258288283     4.95433258288283     4.32500818873016
   25      4.74152765778152    -6.25584711907852    -3.26026431958593
   26     10.34356454594734    -9.56680391597129     9.14203900467811
   27     -4.53481450095661    -0.07242867081074   -13.79984438305376
   28     -6.25584711907852     4.74152765778152    -3.26026431958593
   29     -9.56680391597129    10.34356454594734     9.14203900467811
   30     -0.07242867081073    -4.53481450095661   -13.79984438305376
 frms,max,avg= 2.2076780E+09 1.4809554E+10   9.872E-02  9.872E-02  5.365E-01 e/A
 length scales=  8.680800000000  8.680800000000 40.830000000000 bohr
              =  4.593681512328  4.593681512328 21.606305426730 angstroms
 prteigrs : about to open file sim2DOS_o_EIG
 Fermi (or HOMO) energy (hartree) =   0.39636   Average Vxc (hartree)=  -0.43524
 Eigenvalues (hartree) for nkpt=  10  k points:
 kpt#   1, nband=160, wtk=  0.12500, kpt= -0.1250  0.0000  0.0000 (reduced coord)
  -3.65147   -3.63803   -3.58193   -3.58128   -3.53588   -3.53526   -3.51016   -3.50825
  -3.49748   -3.36029   -3.35975   -2.25152   -2.24904   -2.24648   -2.23642   -2.23058
  -2.21652   -2.19800   -2.18865   -2.18425   -2.17696   -2.17369   -2.15974   -2.15004
  -2.14362   -2.13800   -2.13191   -2.12692   -2.12567   -2.12035   -2.11396   -2.11307
  -2.11037   -2.10410   -2.10076   -2.09695   -2.09484   -2.08642   -2.08436   -1.98449
  -1.97370   -1.97042   -1.96003   -1.95846   -1.94830   -1.84926   -1.82040   -1.76689
  -1.73855   -1.73388   -1.03523   -1.02894   -0.83888   -0.73954   -0.73266   -0.64532
  -0.62359   -0.58378   -0.58046   -0.56234   -0.55970   -0.55940   -0.53706   -0.53627
  -0.52617   -0.11397   -0.08861   -0.08489   -0.03861   -0.02837   -0.02617   -0.02456
  -0.01588   -0.00793    0.00158    0.00391    0.00509    0.00584    0.01577    0.02090
   0.02364    0.02712    0.02939    0.03317    0.03594    0.04837    0.05248    0.05514
   0.05576    0.05729    0.06037    0.06151    0.06388    0.06926    0.08088    0.08555
   0.08631    0.08795    0.09082    0.09583    0.09931    0.09995    0.10199    0.10675
   0.10954    0.11453    0.11762    0.11883    0.12115    0.12305    0.12907    0.13080
   0.13251    0.13651    0.13875    0.14054    0.14292    0.14477    0.14930    0.15178
   0.15331    0.15715    0.16110    0.16364    0.16438    0.16795    0.17050    0.17237
   0.17317    0.17586    0.17813    0.17880    0.18147    0.18323    0.19033    0.19413
   0.20035    0.20944    0.21144    0.21958    0.22299    0.23090    0.23897    0.24554
   0.25225    0.26512    0.27473    0.27710    0.27883    0.28347    0.29007    0.30659
   0.31702    0.32931    0.37291    0.39387    0.40016    0.42346    0.42725    0.45905
 prteigrs : prtvol=0 or 1, do not print more k-points.


--------------------------------------------------------------------------------
 Components of total free energy (in Hartree) :

    Kinetic energy  =  5.63666717129722E+02
    Hartree energy  =  1.43558367699131E+03
    XC energy       = -2.95185716807475E+02
    Ewald energy    =  1.43687160702811E+05
    PspCore energy  =  7.42363952509545E+01
    Loc. psp. energy= -3.28855896570679E+03
    NL   psp  energy=  4.00871379416468E+01
    >>>>>>>>> Etotal=  1.42216989947610E+05

 Other information on the energy :
    Total energy(eV)=  3.86992110487818E+06 ; Band energy (Ha)=  -2.3616482941E+02
--------------------------------------------------------------------------------

 Cartesian components of stress tensor (hartree/bohr^3)
  sigma(1 1)=  2.90003889E-02  sigma(3 2)=  5.06119437E-05
  sigma(2 2)=  2.90003889E-02  sigma(3 1)=  5.06119437E-05
  sigma(3 3)= -4.67546153E+01  sigma(2 1)=  2.05725752E-05

-Cartesian components of stress tensor (GPa)         [Pressure=  4.5795E+05 GPa]
- sigma(1 1)=  8.53220754E+02  sigma(3 2)=  1.48905454E+00
- sigma(2 2)=  8.53220754E+02  sigma(3 1)=  1.48905454E+00
- sigma(3 3)= -1.37556804E+06  sigma(2 1)=  6.05265956E-01

== END DATASET(S) ==============================================================
================================================================================
  
 -outvars: echo values of variables after computation  --------
            acell      8.6808000000E+00  8.6808000000E+00  4.0830000000E+01 Bohr
              amu      4.78800000E+01  1.59994000E+01  1.06420000E+02
           diemac      1.20000000E+01
             ecut      8.00000000E+00 Hartree
           etotal      1.4221698995E+05
            fcart      9.7777720863E-02  9.7777720863E-02 -2.8799999582E+08
                      -6.1560105567E-04 -6.1560105567E-04  1.4022767257E+00
                      -4.6176648637E-03 -4.6176648637E-03 -2.0052254979E+00
                      -1.5481894224E-02 -1.5481894224E-02  1.8171602874E+00
                      -4.0241579489E-03 -4.0241579489E-03 -2.8788564936E-01
                      -6.1244008141E-03 -6.1244008141E-03 -1.8688391691E+00
                      -8.2693804090E-01  8.0920796570E-01 -1.0571115567E+00
                      -5.8152198541E-01  5.7595305761E-01 -6.5728861080E-01
                      -6.6498936492E-01  6.6089698086E-01  1.2470832763E+00
                       8.0920796570E-01 -8.2693804090E-01 -1.0571115567E+00
                       5.7595305761E-01 -5.8152198541E-01 -6.5728861080E-01
                       6.6089698086E-01 -6.6498936492E-01  1.2470832763E+00
                       8.3798773576E-01  8.3798773576E-01 -1.0187767309E+00
                       5.7660293459E-01  5.7660293459E-01 -6.5401172681E-01
                       6.6284511401E-01  6.6284511401E-01  1.2541229119E+00
                      -8.0781125476E-01 -8.0781125476E-01 -1.0887330927E+00
                      -5.7452263381E-01 -5.7452263381E-01 -6.5661704734E-01
                      -6.6397896426E-01 -6.6397896426E-01  1.2422822014E+00
                      -2.8227482098E-01 -2.8227482098E-01 -1.2873186635E-01
                      -9.0606937653E-02 -9.0606937653E-02  6.7586607595E-02
                      -3.4811726439E-02 -3.4811726439E-02  2.8799999888E+08
                       6.0908637401E-02  6.0908637401E-02  1.4272931300E-01
                       2.8373272315E-01  2.8373272315E-01 -1.1875090876E-01
                       9.6346437216E-02  9.6346437216E-02  8.4108025237E-02
                       9.2208039962E-02 -1.2165686732E-01 -6.3402051905E-02
                       2.0115032155E-01 -1.8604473104E-01  1.7778436798E-01
                      -8.8188108750E-02 -1.4085135118E-03 -2.6836426869E-01
                      -1.2165686732E-01  9.2208039962E-02 -6.3402051905E-02
                      -1.8604473104E-01  2.0115032155E-01  1.7778436798E-01
                      -1.4085135118E-03 -8.8188108750E-02 -2.6836426869E-01
-          fftalg         112
           iatsph0       1    2    3    4    5    6    7    8    9   10
                        11   12   13   14   15   16   17   18   19   20
                        21   22   23   24   25   26   27   28   29   30
           istwfk        0    0    0    0    0    7    0    5    6    4
              kpt     -1.25000000E-01  0.00000000E+00  0.00000000E+00
                      -2.50000000E-01  5.00000000E-01  0.00000000E+00
                      -1.25000000E-01  5.00000000E-01  5.00000000E-01
                      -3.75000000E-01  0.00000000E+00  0.00000000E+00
                      -2.50000000E-01  0.00000000E+00  5.00000000E-01
                       5.00000000E-01  5.00000000E-01  0.00000000E+00
                      -3.75000000E-01  5.00000000E-01  5.00000000E-01
                       5.00000000E-01  0.00000000E+00  5.00000000E-01
                       0.00000000E+00  5.00000000E-01  0.00000000E+00
                       0.00000000E+00  0.00000000E+00  5.00000000E-01
           kptopt           2
         kptrlatt        4   -1    1      0    2    0     -4   -1    1
          kptrlen      1.73616000E+01
P           mkmem          10
            natom          30
           natsph       30
            nband         160
            ngfft          24      24     108
             nkpt          10
            nstep          10
             nsym           2
           ntypat           3
              occ      2.000000  2.000000  2.000000  2.000000  2.000000  2.000000
                       2.000000  2.000000  2.000000  2.000000  2.000000  2.000000
                       2.000000  2.000000  2.000000  2.000000  2.000000  2.000000
                       2.000000  2.000000  2.000000  2.000000  2.000000  2.000000
                       2.000000  2.000000  2.000000  2.000000  2.000000  2.000000
                       2.000000  2.000000  2.000000  2.000000  2.000000  2.000000
                       2.000000  2.000000  2.000000  2.000000  2.000000  2.000000
                       2.000000  2.000000  2.000000  2.000000  2.000000  2.000000
                       2.000000  2.000000  2.000000  2.000000  2.000000  2.000000
                       2.000000  2.000000  2.000000  2.000000  2.000000  2.000000
                       2.000000  2.000000  2.000000  2.000000  2.000000  2.000000
                       2.000000  2.000000  2.000000  2.000000  2.000000  2.000000
                       2.000000  2.000000  2.000000  2.000000  2.000000  2.000000
                       2.000000  2.000000  2.000000  2.000000  2.000000  2.000000
                       2.000000  2.000000  2.000000  2.000000  2.000000  2.000000
                       2.000000  2.000000  2.000000  2.000000  2.000000  2.000000
                       2.000000  2.000000  2.000000  2.000000  2.000000  2.000000
                       2.000000  2.000000  2.000000  2.000000  2.000000  2.000000
                       2.000000  2.000000  2.000000  2.000000  2.000000  2.000000
                       2.000000  2.000000  2.000000  2.000000  2.000000  2.000000
                       2.000000  2.000000  2.000000  2.000000  2.000000  2.000000
                       2.000000  2.000000  2.000000  2.000000  2.000000  2.000000
                       2.000000  2.000000  2.000000  2.000000  2.000000  2.000000
                       2.000000  2.000000  2.000000  2.000000  2.000000  2.000000
                       2.000000  2.000000  2.000000  2.000000  2.000000  2.000000
                       2.000000  2.000000  2.000000  2.000000  2.000000  2.000000
                       0.000000  0.000000  0.000000  0.000000
           prtdos           3
           shiftk      5.00000000E-01  0.00000000E+00  5.00000000E-01
          spgroup           8
           strten      2.9000388877E-02  2.9000388877E-02 -4.6754615276E+01
                       5.0611943716E-05  5.0611943716E-05  2.0572575160E-05
           symrel      1  0  0   0  1  0   0  0  1       0  1  0   1  0  0   0  0  1
           toldfe      1.00000000E-06 Hartree
            typat      1  1  1  1  1  1  2  2  2  2  2  2  2  2  2  2  2  2  3  3
                       3  3  3  3  3  3  3  3  3  3
              wtk        0.12500    0.12500    0.12500    0.12500    0.12500    0.06250
                         0.12500    0.06250    0.06250    0.06250
           xangst      0.0000000000E+00  0.0000000000E+00  0.0000000000E+00
                       0.0000000000E+00  0.0000000000E+00  2.9586826909E+00
                       0.0000000000E+00  0.0000000000E+00  5.9173653819E+00
                       2.2968407562E+00  2.2968407562E+00  1.4793678043E+00
                       2.2968407562E+00  2.2968407562E+00  4.4379975776E+00
                       2.2968407562E+00  2.2968407562E+00  7.3967331862E+00
                       3.4452611342E+00  1.1484203781E+00  0.0000000000E+00
                       3.4452611342E+00  1.1484203781E+00  2.9586826909E+00
                       3.4452611342E+00  1.1484203781E+00  5.9173653819E+00
                       1.1484203781E+00  3.4452611342E+00  0.0000000000E+00
                       1.1484203781E+00  3.4452611342E+00  2.9586826909E+00
                       1.1484203781E+00  3.4452611342E+00  5.9173653819E+00
                       1.1484203781E+00  1.1484203781E+00  0.0000000000E+00
                       1.1484203781E+00  1.1484203781E+00  2.9586826909E+00
                       1.1484203781E+00  1.1484203781E+00  5.9173653819E+00
                       3.4452611342E+00  3.4452611342E+00  0.0000000000E+00
                       3.4452611342E+00  3.4452611342E+00  2.9586826909E+00
                       3.4452611342E+00  3.4452611342E+00  5.9173653819E+00
                       0.0000000000E+00  0.0000000000E+00  1.3825124998E+01
                       0.0000000000E+00  0.0000000000E+00  1.7715847507E+01
                       0.0000000000E+00  0.0000000000E+00  2.1606570015E+01
                       1.9453612542E+00  1.9453612542E+00  9.9344024900E+00
                       1.9453612542E+00  1.9453612542E+00  1.3825124998E+01
                       1.9453612542E+00  1.9453612542E+00  1.7715847507E+01
                       1.9453612542E+00  0.0000000000E+00  1.1879763744E+01
                       1.9453612542E+00  0.0000000000E+00  1.5770486253E+01
                       1.9453612542E+00  0.0000000000E+00  1.9661208761E+01
                       0.0000000000E+00  1.9453612542E+00  1.1879763744E+01
                       0.0000000000E+00  1.9453612542E+00  1.5770486253E+01
                       0.0000000000E+00  1.9453612542E+00  1.9661208761E+01
            xcart      0.0000000000E+00  0.0000000000E+00  0.0000000000E+00
                       0.0000000000E+00  0.0000000000E+00  5.5911000000E+00
                       0.0000000000E+00  0.0000000000E+00  1.1182200000E+01
                       4.3404000000E+00  4.3404000000E+00  2.7956000000E+00
                       4.3404000000E+00  4.3404000000E+00  8.3866000000E+00
                       4.3404000000E+00  4.3404000000E+00  1.3977800000E+01
                       6.5106000000E+00  2.1702000000E+00  0.0000000000E+00
                       6.5106000000E+00  2.1702000000E+00  5.5911000000E+00
                       6.5106000000E+00  2.1702000000E+00  1.1182200000E+01
                       2.1702000000E+00  6.5106000000E+00  0.0000000000E+00
                       2.1702000000E+00  6.5106000000E+00  5.5911000000E+00
                       2.1702000000E+00  6.5106000000E+00  1.1182200000E+01
                       2.1702000000E+00  2.1702000000E+00  0.0000000000E+00
                       2.1702000000E+00  2.1702000000E+00  5.5911000000E+00
                       2.1702000000E+00  2.1702000000E+00  1.1182200000E+01
                       6.5106000000E+00  6.5106000000E+00  0.0000000000E+00
                       6.5106000000E+00  6.5106000000E+00  5.5911000000E+00
                       6.5106000000E+00  6.5106000000E+00  1.1182200000E+01
                       0.0000000000E+00  0.0000000000E+00  2.6125700000E+01
                       0.0000000000E+00  0.0000000000E+00  3.3478100000E+01
                       0.0000000000E+00  0.0000000000E+00  4.0830500000E+01
                       3.6762000000E+00  3.6762000000E+00  1.8773300000E+01
                       3.6762000000E+00  3.6762000000E+00  2.6125700000E+01
                       3.6762000000E+00  3.6762000000E+00  3.3478100000E+01
                       3.6762000000E+00  0.0000000000E+00  2.2449500000E+01
                       3.6762000000E+00  0.0000000000E+00  2.9801900000E+01
                       3.6762000000E+00  0.0000000000E+00  3.7154300000E+01
                       0.0000000000E+00  3.6762000000E+00  2.2449500000E+01
                       0.0000000000E+00  3.6762000000E+00  2.9801900000E+01
                       0.0000000000E+00  3.6762000000E+00  3.7154300000E+01
             xred      0.0000000000E+00  0.0000000000E+00  0.0000000000E+00
                       0.0000000000E+00  0.0000000000E+00  1.3693607641E-01
                       0.0000000000E+00  0.0000000000E+00  2.7387215283E-01
                       5.0000000000E-01  5.0000000000E-01  6.8469262797E-02
                       5.0000000000E-01  5.0000000000E-01  2.0540289003E-01
                       5.0000000000E-01  5.0000000000E-01  3.4234141563E-01
                       7.5000000000E-01  2.5000000000E-01  0.0000000000E+00
                       7.5000000000E-01  2.5000000000E-01  1.3693607641E-01
                       7.5000000000E-01  2.5000000000E-01  2.7387215283E-01
                       2.5000000000E-01  7.5000000000E-01  0.0000000000E+00
                       2.5000000000E-01  7.5000000000E-01  1.3693607641E-01
                       2.5000000000E-01  7.5000000000E-01  2.7387215283E-01
                       2.5000000000E-01  2.5000000000E-01  0.0000000000E+00
                       2.5000000000E-01  2.5000000000E-01  1.3693607641E-01
                       2.5000000000E-01  2.5000000000E-01  2.7387215283E-01
                       7.5000000000E-01  7.5000000000E-01  0.0000000000E+00
                       7.5000000000E-01  7.5000000000E-01  1.3693607641E-01
                       7.5000000000E-01  7.5000000000E-01  2.7387215283E-01
                       0.0000000000E+00  0.0000000000E+00  6.3986529513E-01
                       0.0000000000E+00  0.0000000000E+00  8.1993877051E-01
                       0.0000000000E+00  0.0000000000E+00  1.0000122459E+00
                       4.2348631463E-01  4.2348631463E-01  4.5979181974E-01
                       4.2348631463E-01  4.2348631463E-01  6.3986529513E-01
                       4.2348631463E-01  4.2348631463E-01  8.1993877051E-01
                       4.2348631463E-01  0.0000000000E+00  5.4982855743E-01
                       4.2348631463E-01  0.0000000000E+00  7.2990203282E-01
                       4.2348631463E-01  0.0000000000E+00  9.0997550820E-01
                       0.0000000000E+00  4.2348631463E-01  5.4982855743E-01
                       0.0000000000E+00  4.2348631463E-01  7.2990203282E-01
                       0.0000000000E+00  4.2348631463E-01  9.0997550820E-01
            znucl       22.00000    8.00000   46.00000

================================================================================

- Total cpu        time (s,m,h):       2599.0       43.32      0.722
- Total wall clock time (s,m,h):       2607.0       43.45      0.724
-
- For major independent code sections, cpu and wall times (sec),
-  as well as % of the time and number of calls for node 0-
-<BEGIN_TIMER mpi_nprocs = 1, omp_nthreads = 1, mpi_rank = 0>
- cpu_time =         2599.0, wall_time =         2607.0
-
- routine                        cpu     %       wall     %      number of calls  Gflops    Speedup Efficacity
-                                                                  (-1=no count)
- projbd                       222.859   8.6    223.283   8.6         147138      -1.00        1.00       1.00
- nonlop(apply)                150.828   5.8    149.516   5.7          92769      -1.00        1.01       1.01
- fourwf%(pot)                  89.359   3.4     91.137   3.5          92769      -1.00        0.98       0.98
- vtowfk(ssdiag)                47.688   1.8     48.470   1.9             -1      -1.00        0.98       0.98
- others (109)                  26.516   1.0     26.763   1.0             -1      -1.00        0.99       0.99
-<END_TIMER>
-
- subtotal                     537.250  20.7    539.169  20.7                                  1.00       1.00

- For major independent code sections, cpu and wall times (sec),
- as well as % of the total time and number of calls 

-<BEGIN_TIMER mpi_nprocs = 1, omp_nthreads = 1, mpi_rank = world>
- cpu_time =        2599.0, wall_time =        2607.0
-
- routine                         cpu     %       wall     %      number of calls Gflops    Speedup Efficacity
-                                                                  (-1=no count)
- projbd                       222.859   8.6    223.283   8.6         147138      -1.00        1.00       1.00
- nonlop(apply)                150.828   5.8    149.516   5.7          92769      -1.00        1.01       1.01
- fourwf%(pot)                  89.359   3.4     91.137   3.5          92769      -1.00        0.98       0.98
- vtowfk(ssdiag)                47.688   1.8     48.470   1.9             -1      -1.00        0.98       0.98
- others (109)                  26.516   1.0     26.763   1.0             -1      -1.00        0.99       0.99
-<END_TIMER>

- subtotal                     537.250  20.7    539.169  20.7                                  1.00       1.00

================================================================================

 Suggested references for the acknowledgment of ABINIT usage.

 The users of ABINIT have little formal obligations with respect to the ABINIT group
 (those specified in the GNU General Public License, http://www.gnu.org/copyleft/gpl.txt).
 However, it is common practice in the scientific literature,
 to acknowledge the efforts of people that have made the research possible.
 In this spirit, please find below suggested citations of work written by ABINIT developers,
 corresponding to implementations inside of ABINIT that you have used in the present run.
 Note also that it will be of great value to readers of publications presenting these results,
 to read papers enabling them to understand the theoretical formalism and details
 of the ABINIT implementation.
 For information on why they are suggested, see also https://www.abinit.org/about/?text=acknowledgments.
-
- [1] Recent developments in the ABINIT software package.
- Computer Phys. Comm. 205, 106 (2016).
- X.Gonze, F.Jollet, F.Abreu Araujo, D.Adams, B.Amadon, T.Applencourt,
- C.Audouze, J.-M.Beuken, J.Bieder, A.Bokhanchuk, E.Bousquet, F.Bruneval
- D.Caliste, M.Cote, F.Dahm, F.Da Pieve, M.Delaveau, M.Di Gennaro,
- B.Dorado, C.Espejo, G.Geneste, L.Genovese, A.Gerossier, M.Giantomassi,
- Y.Gillet, D.R.Hamann, L.He, G.Jomard, J.Laflamme Janssen, S.Le Roux,
- A.Levitt, A.Lherbier, F.Liu, I.Lukacevic, A.Martin, C.Martins,
- M.J.T.Oliveira, S.Ponce, Y.Pouillon, T.Rangel, G.-M.Rignanese,
- A.H.Romero, B.Rousseau, O.Rubel, A.A.Shukri, M.Stankovski, M.Torrent,
- M.J.Van Setten, B.Van Troeye, M.J.Verstraete, D.Waroquier, J.Wiktor,
- B.Xue, A.Zhou, J.W.Zwanziger.
- Comment : the fourth generic paper describing the ABINIT project.
- Note that a version of this paper, that is not formatted for Computer Phys. Comm. 
- is available at https://www.abinit.org/about/ABINIT16.pdf .
- The licence allows the authors to put it on the Web.
-
- [2] Optimized norm-conserving Vanderbilt pseudopotentials.
- D.R. Hamann, Phys. Rev. B 88, 085117 (2013).
- Comment: Some pseudopotential generated using the ONCVPSP code were used.
-
- [3] ABINIT : First-principles approach of materials and nanosystem properties.
- Computer Phys. Comm. 180, 2582-2615 (2009).
- X. Gonze, B. Amadon, P.-M. Anglade, J.-M. Beuken, F. Bottin, P. Boulanger, F. Bruneval,
- D. Caliste, R. Caracas, M. Cote, T. Deutsch, L. Genovese, Ph. Ghosez, M. Giantomassi
- S. Goedecker, D.R. Hamann, P. Hermet, F. Jollet, G. Jomard, S. Leroux, M. Mancini, S. Mazevet,
- M.J.T. Oliveira, G. Onida, Y. Pouillon, T. Rangel, G.-M. Rignanese, D. Sangalli, R. Shaltaf,
- M. Torrent, M.J. Verstraete, G. Zerah, J.W. Zwanziger
- Comment : the third generic paper describing the ABINIT project.
- Note that a version of this paper, that is not formatted for Computer Phys. Comm. 
- is available at https://www.abinit.org/about/ABINIT_CPC_v10.pdf .
- The licence allows the authors to put it on the Web.
-
- [4] A brief introduction to the ABINIT software package.
- Z. Kristallogr. 220, 558-562 (2005).
- X. Gonze, G.-M. Rignanese, M. Verstraete, J.-M. Beuken, Y. Pouillon, R. Caracas, F. Jollet,
- M. Torrent, G. Zerah, M. Mikami, Ph. Ghosez, M. Veithen, J.-Y. Raty, V. Olevano, F. Bruneval,
- L. Reining, R. Godby, G. Onida, D.R. Hamann, and D.C. Allan.
- Comment : the second generic paper describing the ABINIT project. Note that this paper
- should be cited especially if you are using the GW part of ABINIT, as several authors
- of this part are not in the list of authors of the first or third paper.
- The .pdf of the latter paper is available at https://www.abinit.org/about/zfk_0505-06_558-562.pdf.
- Note that it should not redistributed (Copyright by Oldenburg Wissenshaftverlag,
- the licence allows the authors to put it on the Web).
-
- And optionally:
-
- [5] First-principles computation of material properties : the ABINIT software project. 
- X. Gonze, J.-M. Beuken, R. Caracas, F. Detraux, M. Fuchs, G.-M. Rignanese, L. Sindic,
- M. Verstraete, G. Zerah, F. Jollet, M. Torrent, A. Roy, M. Mikami, Ph. Ghosez, J.-Y. Raty, D.C. Allan.
- Computational Materials Science 25, 478-492 (2002). http://dx.doi.org/10.1016/S0927-0256(02)00325-7
- Comment : the original paper describing the ABINIT project.
-
- Proc.   0 individual time (sec): cpu=       2599.0  wall=       2607.1

================================================================================

 Calculation completed.
.Delivered   4 WARNINGs and   1 COMMENTs to log file.
+Overall time at end (sec) : cpu=       2599.0  wall=       2607.1
